 vasp.6.4.2 20Jul23 (build Nov 01 2023 13:42:04) complex                        
  
 executed on             LinuxIFC date 2024.08.19  18:03:34
 running  128 mpi-ranks, on    2 nodes
 distrk:  each k-point on  128 cores,    1 groups
 distr:  one band on NCORE=   2 cores,   64 groups


--------------------------------------------------------------------------------------------------------


 INCAR:
   SYSTEM = Bulk Water
   ISTART = 0
   ICHARG = 2
   IALGO = 38
   LHFCALC = .TRUE.	
   METAGGA = R2SCAN
   ENCUT = 900
   LASPH = .TRUE.
   NELM = 70
   NELMIN = 5
   ISMEAR = 0
   SIGMA = 0.05
   EDIFF = 1E-6
   PREC = Accurate
   NSW = 0
   IBRION = -1
   NEDOS = 2
   NCORE = 2
   LWAVE = .FALSE.		
   LCHARG = .FALSE.	

 POTCAR:    PAW_PBE H 15Jun2001                   
 POTCAR:    PAW_PBE O 08Apr2002                   
 -----------------------------------------------------------------------------
|                                                                             |
|           W    W    AA    RRRRR   N    N  II  N    N   GGGG   !!!           |
|           W    W   A  A   R    R  NN   N  II  NN   N  G    G  !!!           |
|           W    W  A    A  R    R  N N  N  II  N N  N  G       !!!           |
|           W WW W  AAAAAA  RRRRR   N  N N  II  N  N N  G  GGG   !            |
|           WW  WW  A    A  R   R   N   NN  II  N   NN  G    G                |
|           W    W  A    A  R    R  N    N  II  N    N   GGGG   !!!           |
|                                                                             |
|     For optimal performance we recommend to set                             |
|       NCORE = 2 up to number-of-cores-per-socket                            |
|     NCORE specifies how many cores store one orbital (NPAR=cpu/NCORE).      |
|     This setting can greatly improve the performance of VASP for DFT.       |
|     The default, NCORE=1 might be grossly inefficient on modern             |
|     multi-core architectures or massively parallel machines. Do your        |
|     own testing! More info at https://www.vasp.at/wiki/index.php/NCORE      |
|     Unfortunately you need to use the default for GW and RPA                |
|     calculations (for HF NCORE is supported but not extensively tested      |
|     yet).                                                                   |
|                                                                             |
 -----------------------------------------------------------------------------

 POTCAR:    PAW_PBE H 15Jun2001                   
   SHA256 =  030f79b5d3ab3cf0e668861823c8fb652ff669f3e15e46930bd03bfd63a607b6 H/POTCAR              
   COPYR  = (c) Copyright 15Jun2001 Georg Kresse                                                    
   COPYR  = This file is part of the software VASP. Any use, copying, and all other rights are regul
   COPYR  = If you do not have a valid VASP license, you may not use, copy or distribute this file. 
   VRHFIN =H: ultrasoft test                                                                        
   LEXCH  = PE                                                                                      
   EATOM  =    12.4884 eV,    0.9179 Ry                                                             
                                                                                                    
   TITEL  = PAW_PBE H 15Jun2001                                                                     
   LULTRA =        F    use ultrasoft PP ?                                                          
   IUNSCR =        0    unscreen: 0-lin 1-nonlin 2-no                                               
   RPACOR =    0.000    partial core radius                                                         
   POMASS =    1.000; ZVAL   =    1.000    mass and valenz                                          
   RCORE  =    1.100    outmost cutoff radius                                                       
   RWIGS  =    0.700; RWIGS  =    0.370    wigner-seitz radius (au A)                               
   ENMAX  =  250.000; ENMIN  =  200.000 eV                                                          
   RCLOC  =    0.701    cutoff for local pot                                                        
   LCOR   =        T    correct aug charges                                                         
   LPAW   =        T    paw PP                                                                      
   EAUG   =  400.000                                                                                
   RMAX   =    1.123    core radius for proj-oper                                                   
   RAUG   =    1.200    factor for augmentation sphere                                              
   RDEP   =    1.112    radius for radial grids                                                     
   RDEPT  =    0.926    core radius for aug-charge                                                  
                                                                                                    
   Atomic configuration                                                                             
    2 entries                                                                                       
     n  l   j            E        occ.                                                              
     1  0  0.50        -6.4927   1.0000                                                             
     2  1  0.50        -3.4015   0.0000                                                             
   Description                                                                                      
     l       E           TYP  RCUT    TYP  RCUT                                                     
     0     -6.4927494     23  1.100                                                                 
     0      6.8029130     23  1.100                                                                 
     1     -4.0817478     23  1.100                                                                 
  local pseudopotential read in
  atomic valenz-charges read in
  non local Contribution for L=           0  read in
    real space projection operators read in
  non local Contribution for L=           0  read in
    real space projection operators read in
  non local Contribution for L=           1  read in
    real space projection operators read in
    PAW grid and wavefunctions read in
 
   number of l-projection  operators is LMAX  =           3
   number of lm-projection operators is LMMAX =           5
 
 POTCAR:    PAW_PBE O 08Apr2002                   
   SHA256 =  818f92134a0a090dccd8ba1447fa70422a3b330e708bb4f08108d8ae51209ddf O/POTCAR              
   COPYR  = (c) Copyright 08Apr2002 Georg Kresse                                                    
   COPYR  = This file is part of the software VASP. Any use, copying, and all other rights are regul
   COPYR  = If you do not have a valid VASP license, you may not use, copy or distribute this file. 
   VRHFIN =O: s2p4                                                                                  
   LEXCH  = PE                                                                                      
   EATOM  =   432.3788 eV,   31.7789 Ry                                                             
                                                                                                    
   TITEL  = PAW_PBE O 08Apr2002                                                                     
   LULTRA =        F    use ultrasoft PP ?                                                          
   IUNSCR =        1    unscreen: 0-lin 1-nonlin 2-no                                               
   RPACOR =    1.200    partial core radius                                                         
   POMASS =   16.000; ZVAL   =    6.000    mass and valenz                                          
   RCORE  =    1.520    outmost cutoff radius                                                       
   RWIGS  =    1.550; RWIGS  =    0.820    wigner-seitz radius (au A)                               
   ENMAX  =  400.000; ENMIN  =  300.000 eV                                                          
   ICORE  =        2    local potential                                                             
   LCOR   =        T    correct aug charges                                                         
   LPAW   =        T    paw PP                                                                      
   EAUG   =  605.392                                                                                
   DEXC   =    0.000                                                                                
   RMAX   =    1.553    core radius for proj-oper                                                   
   RAUG   =    1.300    factor for augmentation sphere                                              
   RDEP   =    1.550    radius for radial grids                                                     
   RDEPT  =    1.329    core radius for aug-charge                                                  
                                                                                                    
   Atomic configuration                                                                             
    4 entries                                                                                       
     n  l   j            E        occ.                                                              
     1  0  0.50      -514.6923   2.0000                                                             
     2  0  0.50       -23.9615   2.0000                                                             
     2  1  0.50        -9.0305   4.0000                                                             
     3  2  1.50        -9.5241   0.0000                                                             
   Description                                                                                      
     l       E           TYP  RCUT    TYP  RCUT                                                     
     0    -23.9615318     23  1.200                                                                 
     0     -9.5240782     23  1.200                                                                 
     1     -9.0304911     23  1.520                                                                 
     1      8.1634956     23  1.520                                                                 
     2     -9.5240782      7  1.500                                                                 
  local pseudopotential read in
  partial core-charges read in
  partial kinetic energy density read in
  kinetic energy density of atom read in
  atomic valenz-charges read in
  non local Contribution for L=           0  read in
    real space projection operators read in
  non local Contribution for L=           0  read in
    real space projection operators read in
  non local Contribution for L=           1  read in
    real space projection operators read in
  non local Contribution for L=           1  read in
    real space projection operators read in
    PAW grid and wavefunctions read in
 
   number of l-projection  operators is LMAX  =           4
   number of lm-projection operators is LMMAX =           8
 
 -----------------------------------------------------------------------------
|                                                                             |
|               ----> ADVICE to this user running VASP <----                  |
|                                                                             |
|     You have a (more or less) 'large supercell' and for larger cells it     |
|     might be more efficient to use real-space projection operators.         |
|     Therefore, try LREAL= Auto in the INCAR file.                           |
|     Mind: For very accurate calculation, you might also keep the            |
|     reciprocal projection scheme (i.e. LREAL=.FALSE.).                      |
|                                                                             |
 -----------------------------------------------------------------------------

  PAW_PBE H 15Jun2001                   :
 energy of atom  1       EATOM=  -12.4884
 kinetic energy error for atom=    0.0002 (will be added to EATOM!!)
  PAW_PBE O 08Apr2002                   :
 energy of atom  2       EATOM= -432.3788
 kinetic energy error for atom=    0.0026 (will be added to EATOM!!)
 
 
 POSCAR: Generated POSCAR
  positions in cartesian coordinates
  No initial velocities read in

 METAGGA = R2SCAN                                      LMAXTAU =  6    LMIXTAU =  F

 exchange correlation table for  LEXCH =        8
   RHO(1)=    0.500       N(1)  =     2000
   RHO(2)=  100.500       N(2)  =     4000
 


--------------------------------------------------------------------------------------------------------


 ion  position               nearest neighbor table
   1  0.923  0.298  0.247- 129 0.92
   2  0.888  0.439  0.520- 130 0.99
   3  0.992  0.953  0.908- 131 1.03
   4  0.780  0.104  0.460- 132 1.01
   5  0.510  0.196  0.171- 133 1.00
   6  0.029  0.475  0.339- 134 1.00
   7  0.637  0.042  0.285- 135 0.93
   8  0.433  0.723  0.376- 136 0.89
   9  0.183  0.529  0.405- 137 0.94
  10  0.491  0.554  0.864- 138 1.04
  11  0.912  0.907  0.278- 139 0.96
  12  0.308  0.985  0.862- 140 1.10
  13  0.271  0.473  0.190- 141 0.90
  14  0.087  0.526  0.972- 142 1.00
  15  0.121  0.231  0.451- 143 1.05
  16  0.978  0.807  0.368- 144 1.08
  17  0.198  0.784  0.074- 145 0.98
  18  0.049  0.117  0.637- 146 1.02
  19  0.524  0.931  0.571- 147 1.05
  20  0.258  0.259  0.333- 148 1.09
  21  0.265  0.960  0.330- 149 1.02
  22  0.677  0.864  0.048- 150 1.06
  23  0.384  0.767  0.028- 151 0.99
  24  0.427  0.733  0.194- 152 1.27
  25  0.768  0.325  0.634- 153 1.02
  26  0.432  0.812  0.648- 154 0.96
  27  0.261  0.490  0.582- 155 0.97
  28  0.858  0.688  0.574- 156 1.07
  29  0.772  0.493  0.313- 157 1.00
  30  0.768  0.283  0.938- 158 1.14
  31  0.277  0.801  0.271- 159 1.22
  32  0.736  0.222  0.365- 160 1.03
  33  0.116  0.217  0.200- 161 0.99
  34  0.701  0.762  0.633- 162 0.99
  35  0.290  0.349  0.643- 163 1.06
  36  0.787  0.333  0.088- 164 0.92
  37  0.509  0.373  0.831- 165 1.16
  38  0.590  0.671  0.859- 166 0.95
  39  0.968  0.698  0.197- 167 1.02
  40  0.043  0.166  0.885- 168 1.08 178 1.42
  41  0.479  0.307  0.576- 169 0.95
  42  0.494  0.450  0.151- 170 0.97
  43  0.943  0.956  0.651- 171 0.98
  44  0.416  0.004  0.447- 172 1.04
  45  0.142  0.626  0.742- 173 0.97
  46  0.427  0.025  0.989- 174 0.95
  47  0.421  0.504  0.358- 175 1.06
  48  0.458  0.469  0.576- 176 0.92
  49  0.703  0.979  0.593- 177 0.98
  50  0.201  0.277  0.903- 178 1.13
  51  0.311  0.327  0.068- 179 0.90
  52  0.569  0.858  0.917- 180 1.11
  53  0.721  0.809  0.825- 181 1.01
  54  0.112  0.821  0.784- 182 0.92
  55  0.621  0.347  0.454- 183 0.97
  56  0.557  0.178  0.842- 184 1.02
  57  0.699  0.807  0.254- 185 1.03
  58  0.288  0.546  0.891- 186 0.93
  59  0.917  0.483  0.889- 187 0.98
  60  0.278  0.045  0.667- 188 1.07
  61  0.711  0.526  0.808- 189 1.03
  62  0.178  0.805  0.429- 190 0.97
  63  0.867  0.917  0.483- 191 0.91
  64  0.014  0.061  0.166- 192 0.98
  65  0.940  0.213  0.156- 129 1.03
  66  0.775  0.398  0.499- 130 0.99
  67  0.927  0.845  0.869- 131 0.95
  68  0.841  0.102  0.593- 132 1.07
  69  0.566  0.273  0.089- 133 0.95
  70  0.005  0.370  0.395- 134 0.90
  71  0.581  0.973  0.200- 135 0.93
  72  0.549  0.733  0.392- 136 0.81
  73  0.107  0.628  0.372- 137 1.01
  74  0.571  0.493  0.944- 138 0.92
  75  0.855  0.915  0.168- 139 1.00
  76  0.251  0.899  0.775- 140 1.17
  77  0.208  0.484  0.091- 141 0.97
  78  0.104  0.636  0.026- 142 0.88
  79  0.132  0.347  0.524- 143 1.12
  80  0.080  0.808  0.279- 144 0.97
  81  0.076  0.835  0.036- 145 0.98
  82  0.979  0.117  0.740- 146 0.90
  83  0.459  0.857  0.494- 147 0.87
  84  0.357  0.199  0.384- 148 1.03
  85  0.188  0.938  0.226- 149 0.94
  86  0.781  0.791  0.099- 150 0.92
  87  0.319  0.876  0.986- 151 1.02
  88  0.544  0.762  0.124- 152 1.00
  89  0.729  0.192  0.637- 153 1.05
  90  0.362  0.725  0.719- 154 0.89
  91  0.134  0.511  0.636- 155 1.13 173 1.34
  92  0.974  0.740  0.580- 156 1.00
  93  0.697  0.507  0.225- 157 0.88
  94  0.828  0.251  0.816- 158 1.05
  95  0.262  0.666  0.294- 159 0.98
  96  0.829  0.175  0.296- 160 0.99
  97  0.176  0.322  0.221- 161 1.00
  98  0.657  0.697  0.529- 162 1.02
  99  0.297  0.217  0.641- 163 0.97
 100  0.684  0.409  0.061- 164 0.97
 101  0.429  0.268  0.750- 165 1.20
 102  0.516  0.762  0.799- 166 0.99
 103  0.872  0.623  0.204- 167 0.93
 104  0.927  0.156  0.919- 168 1.04
 105  0.586  0.344  0.617- 169 0.88
 106  0.540  0.590  0.106- 170 1.15
 107  0.906  0.828  0.683- 171 1.10
 108  0.431  0.047  0.315- 172 1.04
 109  0.033  0.617  0.679- 173 1.04
 110  0.337  0.116  0.013- 174 0.95
 111  0.394  0.373  0.334- 175 0.98
 112  0.419  0.606  0.608- 176 1.15
 113  0.623  0.995  0.704- 177 1.04
 114  0.081  0.321  0.881- 178 0.87
 115  0.378  0.291  0.976- 179 0.93
 116  0.597  1.000  0.925- 180 1.09
 117  0.795  0.706  0.814- 181 1.02
 118  0.163  0.811  0.647- 182 1.14
 119  0.663  0.354  0.323- 183 1.02
 120  0.673  0.146  0.853- 184 0.95
 121  0.746  0.708  0.320- 185 1.09
 122  0.340  0.656  0.892- 186 0.97
 123  0.032  0.487  0.828- 187 0.96
 124  0.286  0.047  0.538- 188 0.93
 125  0.805  0.504  0.707- 189 1.06
 126  0.243  0.721  0.505- 190 1.00
 127  0.807  0.859  0.408- 191 0.86
 128  0.044  0.097  0.049- 192 0.93
 129  0.882  0.263  0.193-   1 0.92  65 1.03
 130  0.819  0.426  0.562-   2 0.99  66 0.99
 131  0.999  0.875  0.877-  67 0.95   3 1.03
 132  0.770  0.092  0.542-   4 1.01  68 1.07
 133  0.560  0.261  0.167-  69 0.95   5 1.00
 134  0.968  0.427  0.367-  70 0.90   6 1.00
 135  0.569  0.010  0.266-  71 0.93   7 0.93
 136  0.490  0.726  0.422-  72 0.81   8 0.89
 137  0.163  0.573  0.344-   9 0.94  73 1.01
 138  0.566  0.512  0.870-  74 0.92  10 1.04
 139  0.919  0.945  0.209-  11 0.96  75 1.00
 140  0.303  0.980  0.771-  12 1.10  76 1.17
 141  0.240  0.428  0.139-  13 0.90  77 0.97
 142  0.140  0.575  0.011-  78 0.88  14 1.00
 143  0.073  0.279  0.504-  15 1.05  79 1.12
 144  0.054  0.767  0.342-  80 0.97  16 1.08
 145  0.119  0.792  0.089-  17 0.98  81 0.98
 146  0.973  0.099  0.668-  82 0.90  18 1.02
 147  0.446  0.913  0.536-  83 0.87  19 1.05
 148  0.314  0.270  0.403-  84 1.03  20 1.09
 149  0.215  0.905  0.291-  85 0.94  21 1.02
 150  0.712  0.818  0.113-  86 0.92  22 1.06
 151  0.317  0.791  0.988-  23 0.99  87 1.02
 152  0.483  0.708  0.110-  88 1.00  24 1.27
 153  0.711  0.271  0.664-  25 1.02  89 1.05
 154  0.423  0.741  0.682-  90 0.89  26 0.96
 155  0.192  0.451  0.593-  27 0.97  91 1.13
 156  0.939  0.669  0.601-  92 1.00  28 1.07
 157  0.744  0.550  0.259-  93 0.88  29 1.00
 158  0.801  0.211  0.888-  94 1.05  30 1.14
 159  0.323  0.711  0.265-  95 0.98  31 1.22
 160  0.764  0.147  0.337-  96 0.99  32 1.03
 161  0.135  0.265  0.264-  33 0.99  97 1.00
 162  0.722  0.704  0.581-  34 0.99  98 1.02
 163  0.344  0.281  0.650-  99 0.97  35 1.06
 164  0.742  0.362  0.035-  36 0.92 100 0.97
 165  0.471  0.285  0.838-  37 1.16 101 1.20
 166  0.577  0.748  0.852-  38 0.95 102 0.99
 167  0.895  0.681  0.160- 103 0.93  39 1.02
 168  0.987  0.099  0.900- 104 1.04  40 1.08
 169  0.537  0.359  0.567- 105 0.88  41 0.95
 170  0.547  0.496  0.115-  42 0.97 106 1.15
 171  0.930  0.884  0.616-  43 0.98 107 1.10
 172  0.381  0.051  0.385-  44 1.04 108 1.04
 173  0.092  0.569  0.720-  45 0.97 109 1.04  91 1.34
 174  0.352  0.045  0.984-  46 0.95 110 0.95
 175  0.433  0.437  0.304- 111 0.98  47 1.06
 176  0.404  0.521  0.570-  48 0.92 112 1.15
 177  0.644  0.946  0.637-  49 0.98 113 1.04
 178  0.115  0.258  0.873- 114 0.87  50 1.13  40 1.42
 179  0.320  0.268  0.022-  51 0.90 115 0.93
 180  0.589  0.925  0.975- 116 1.09  52 1.11
 181  0.800  0.789  0.805-  53 1.01 117 1.02
 182  0.167  0.794  0.740-  54 0.92 118 1.14
 183  0.683  0.345  0.404-  55 0.97 119 1.02
 184  0.606  0.111  0.832- 120 0.95  56 1.02
 185  0.704  0.786  0.336-  57 1.03 121 1.09
 186  0.351  0.581  0.866-  58 0.93 122 0.97
 187  0.994  0.461  0.892- 123 0.96  59 0.98
 188  0.254  0.088  0.594- 124 0.93  60 1.07
 189  0.781  0.557  0.772-  61 1.03 125 1.06
 190  0.209  0.796  0.502-  62 0.97 126 1.00
 191  0.851  0.913  0.410- 127 0.86  63 0.91
 192  0.055  0.116  0.123- 128 0.93  64 0.98
 
  LATTYP: Found a simple cubic cell.
 ALAT       =    12.1360900000
  
  Lattice vectors:
  
 A1 = (  12.1360900000,   0.0000000000,   0.0000000000)
 A2 = (   0.0000000000,  12.1360900000,   0.0000000000)
 A3 = (   0.0000000000,   0.0000000000,  12.1360900000)


Analysis of symmetry for initial positions (statically):
=====================================================================
 Subroutine PRICEL returns:
 Original cell was already a primitive cell.
 

 Routine SETGRP: Setting up the symmetry group for a 
 simple cubic supercell.


 Subroutine GETGRP returns: Found  1 space group operations
 (whereof  1 operations were pure point group operations)
 out of a pool of 48 trial point group operations.


The static configuration has the point symmetry C_1 .


Analysis of symmetry for dynamics (positions and initial velocities):
=====================================================================
 Subroutine PRICEL returns:
 Original cell was already a primitive cell.
 

 Routine SETGRP: Setting up the symmetry group for a 
 simple cubic supercell.


 Subroutine GETGRP returns: Found  1 space group operations
 (whereof  1 operations were pure point group operations)
 out of a pool of 48 trial point group operations.


The dynamic configuration has the point symmetry C_1 .


 Subroutine INISYM returns: Found  1 space group operations
 (whereof  1 operations are pure point group operations),
 and found     1 'primitive' translations


----------------------------------------------------------------------------------------

                                     Primitive cell                                     

  volume of cell :    1787.4601

  direct lattice vectors                    reciprocal lattice vectors
    12.136090000  0.000000000  0.000000000     0.082398862  0.000000000  0.000000000
     0.000000000 12.136090000  0.000000000     0.000000000  0.082398862  0.000000000
     0.000000000  0.000000000 12.136090000     0.000000000  0.000000000  0.082398862

  length of vectors
    12.136090000 12.136090000 12.136090000     0.082398862  0.082398862  0.082398862

  position of ions in fractional coordinates (direct lattice)
     0.922818882  0.297814123  0.247062604
     0.887888521  0.438805085  0.520440850
     0.992097702  0.953459475  0.907884170
     0.779883472  0.103533675  0.460076268
     0.509873526  0.196252417  0.171374223
     0.029127915  0.475264191  0.339400416
     0.637074132  0.042372461  0.284933121
     0.433070618  0.723346564  0.376070711
     0.183357572  0.528974241  0.405290419
     0.491359326  0.553869821  0.864458817
     0.911992083  0.906626681  0.278418832
     0.308145210  0.985400570  0.861884923
     0.270812428  0.472661211  0.190011940
     0.086581263  0.526424079  0.972348343
     0.121221580  0.231064041  0.451061833
     0.978487388  0.806952651  0.368192968
     0.197770864  0.784240806  0.073824106
     0.049174734  0.116753831  0.637356925
     0.523771083  0.930688385  0.571036059
     0.258446501  0.258710260  0.333108357
     0.264770284  0.960441295  0.330201984
     0.676555876  0.864064291  0.048230196
     0.384066285  0.767390815  0.028042475
     0.427073876  0.733312541  0.194314808
     0.767769026  0.325145413  0.633515984
     0.431689531  0.811944292  0.648103467
     0.260841012  0.490460107  0.581950777
     0.857945022  0.688018217  0.573598334
     0.771609225  0.493431740  0.312587250
     0.768090546  0.283432638  0.937798583
     0.276958065  0.800856701  0.270558722
     0.735680273  0.222239453  0.365271764
     0.116356174  0.217490477  0.200200641
     0.701326704  0.762249374  0.633482860
     0.289906799  0.349140044  0.643290302
     0.787173793  0.332504126  0.088272335
     0.508514192  0.372784233  0.830792043
     0.590424675  0.671392516  0.858894010
     0.968210849  0.698332412  0.197026307
     0.042878060  0.166463828  0.885455530
     0.478929622  0.306987918  0.575938708
     0.494004824  0.449900668  0.151109707
     0.942661187  0.955701630  0.651166397
     0.415883452  0.003556994  0.446749736
     0.141833820  0.626301140  0.742129632
     0.427482904  0.025205070  0.989225772
     0.421116521  0.503937182  0.358198234
     0.458499154  0.468614686  0.575585053
     0.702768355  0.978763753  0.593107170
     0.201075223  0.276520444  0.903111958
     0.311137442  0.326657927  0.067512518
     0.568806757  0.857658686  0.917181316
     0.721196613  0.808541219  0.825393352
     0.111531721  0.821041620  0.784080128
     0.621418101  0.346650610  0.454054148
     0.556688439  0.177564356  0.841667374
     0.698757425  0.806527638  0.253553080
     0.287813456  0.545573822  0.891161404
     0.917101637  0.483449694  0.889498595
     0.278333467  0.044866510  0.667277105
     0.710533706  0.526482582  0.807653289
     0.178227172  0.805113921  0.428740229
     0.866968027  0.917203317  0.483340763
     0.013794888  0.060603621  0.165629045
     0.940205124  0.213229714  0.155912242
     0.775013369  0.398172723  0.498837022
     0.927117548  0.845056604  0.869375804
     0.840727121  0.102020750  0.592571331
     0.566085123  0.272918131  0.089398892
     0.004636749  0.369580483  0.395357648
     0.581144092  0.973278379  0.200187045
     0.548955636  0.733217783  0.391687108
     0.107034638  0.628147286  0.371846369
     0.571112030  0.493480190  0.943984512
     0.854730807  0.915101487  0.167826788
     0.251143490  0.898725372  0.775286851
     0.207722339  0.484234708  0.090558656
     0.104413942  0.636309882  0.026107997
     0.131647343  0.346611141  0.524287394
     0.080226745  0.808389522  0.278685392
     0.076467462  0.835293245  0.036325456
     0.978711430  0.116580876  0.740164913
     0.459243381  0.856511776  0.494150917
     0.356728979  0.198844603  0.384282088
     0.187505861  0.937913364  0.225571663
     0.781105694  0.790724278  0.098635557
     0.318722917  0.875603510  0.985523097
     0.543574166  0.762038515  0.124338811
     0.728896704  0.191515224  0.636708858
     0.361796757  0.725308069  0.718635409
     0.134029247  0.510775299  0.635607926
     0.973791476  0.740238578  0.580171538
     0.697431792  0.506810843  0.225136679
     0.828283080  0.250925380  0.815978870
     0.262154368  0.666092621  0.293687918
     0.828719958  0.174513785  0.295613991
     0.176342051  0.321629372  0.220515421
     0.656707473  0.696527877  0.528713119
     0.297430392  0.216522373  0.640919110
     0.683648358  0.409496139  0.061417310
     0.428747809  0.267719422  0.749743039
     0.516136169  0.762271374  0.798657970
     0.872035722  0.622887273  0.204357334
     0.927054595  0.155869889  0.919460469
     0.585582506  0.343777362  0.617492537
     0.539830868  0.590433822  0.106379567
     0.906284644  0.828251274  0.683465762
     0.430685089  0.046885282  0.315280210
     0.033134725  0.616801457  0.678992987
     0.337376700  0.116390370  0.013109906
     0.394249054  0.373020718  0.333991673
     0.419439787  0.605621745  0.607622883
     0.623398887  0.994720787  0.703705889
     0.081175650  0.320735838  0.881489590
     0.377876482  0.290719251  0.976140915
     0.597202559  0.999939354  0.924816724
     0.795302111  0.705996248  0.814239594
     0.162794607  0.810821937  0.647496022
     0.663344866  0.354199582  0.322536830
     0.673241629  0.145657868  0.852615463
     0.745785587  0.708484446  0.319916464
     0.339940871  0.655637854  0.892279886
     0.031958893  0.487240371  0.827964114
     0.285748705  0.046970153  0.537927949
     0.804801464  0.504493457  0.706594463
     0.243008415  0.720814529  0.504572642
     0.806528791  0.858855035  0.408217062
     0.043902608  0.097344697  0.049256556
     0.882020651  0.263331518  0.192769582
     0.819155181  0.425668481  0.561931808
     0.998822355  0.874748951  0.876755034
     0.769802712  0.092191719  0.541700169
     0.560274520  0.261382538  0.166820203
     0.968328102  0.427298578  0.366771835
     0.569493717  0.010444138  0.266389916
     0.489879360  0.725590944  0.422176582
     0.162971764  0.572947135  0.344480059
     0.565979405  0.511667184  0.870393265
     0.919421988  0.944591792  0.209168686
     0.303101081  0.979991991  0.771226812
     0.239503909  0.428489406  0.138806238
     0.140080949  0.575166137  0.011227586
     0.072546347  0.279232356  0.504052294
     0.053828045  0.767188114  0.342372791
     0.119324840  0.792231518  0.089475523
     0.972960484  0.098751245  0.668215710
     0.446120044  0.912915115  0.536394671
     0.313799337  0.269604543  0.403470722
     0.214578748  0.905463127  0.290668164
     0.711572673  0.818060347  0.113409179
     0.317487428  0.791357348  0.988219270
     0.482925390  0.707697866  0.110072272
     0.710809083  0.271222527  0.664189784
     0.423412318  0.740792792  0.681606514
     0.191702599  0.451173978  0.592567458
     0.939087548  0.668667091  0.601233181
     0.743855064  0.550256137  0.259430756
     0.801379934  0.210557354  0.888017558
     0.322603738  0.711394444  0.265058351
     0.763924872  0.147311202  0.336939657
     0.135246525  0.265277367  0.263972416
     0.722166035  0.703648869  0.581004096
     0.343846659  0.280638163  0.650131138
     0.741898585  0.361713946  0.034949807
     0.470599345  0.285156999  0.837964781
     0.576734517  0.748453003  0.851946302
     0.895312741  0.680998411  0.159520818
     0.987270035  0.098514266  0.899551503
     0.536760687  0.359193777  0.566659690
     0.547458201  0.496358877  0.114845556
     0.930113406  0.884134676  0.616328982
     0.381041093  0.051427601  0.385078885
     0.091644920  0.568624161  0.719810664
     0.351922571  0.045055286  0.983503254
     0.433477916  0.436910570  0.303761096
     0.403632966  0.520623446  0.569561696
     0.643586691  0.945943380  0.636609567
     0.114761674  0.257919973  0.872510916
     0.320319559  0.268444202  0.021866433
     0.589453605  0.925334848  0.974666964
     0.800078938  0.789222641  0.805494109
     0.167289630  0.794151082  0.739893738
     0.683003092  0.344530405  0.403533840
     0.605964359  0.110572763  0.832496381
     0.703873900  0.785927758  0.336027337
     0.351375773  0.580716442  0.866225943
     0.994245181  0.460629330  0.891741821
     0.254090733  0.088088997  0.594031274
     0.781403813  0.557235320  0.772192197
     0.209447771  0.795721686  0.502001963
     0.851156427  0.913381822  0.410155742
     0.054678072  0.115805832  0.122939349

  ion indices of the primitive-cell ions
   primitive index   ion index
                 1           1
                 2           2
                 3           3
                 4           4
                 5           5
                 6           6
                 7           7
                 8           8
                 9           9
                10          10
                11          11
                12          12
                13          13
                14          14
                15          15
                16          16
                17          17
                18          18
                19          19
                20          20
                21          21
                22          22
                23          23
                24          24
                25          25
                26          26
                27          27
                28          28
                29          29
                30          30
                31          31
                32          32
                33          33
                34          34
                35          35
                36          36
                37          37
                38          38
                39          39
                40          40
                41          41
                42          42
                43          43
                44          44
                45          45
                46          46
                47          47
                48          48
                49          49
                50          50
                51          51
                52          52
                53          53
                54          54
                55          55
                56          56
                57          57
                58          58
                59          59
                60          60
                61          61
                62          62
                63          63
                64          64
                65          65
                66          66
                67          67
                68          68
                69          69
                70          70
                71          71
                72          72
                73          73
                74          74
                75          75
                76          76
                77          77
                78          78
                79          79
                80          80
                81          81
                82          82
                83          83
                84          84
                85          85
                86          86
                87          87
                88          88
                89          89
                90          90
                91          91
                92          92
                93          93
                94          94
                95          95
                96          96
                97          97
                98          98
                99          99
               100         100
               101         101
               102         102
               103         103
               104         104
               105         105
               106         106
               107         107
               108         108
               109         109
               110         110
               111         111
               112         112
               113         113
               114         114
               115         115
               116         116
               117         117
               118         118
               119         119
               120         120
               121         121
               122         122
               123         123
               124         124
               125         125
               126         126
               127         127
               128         128
               129         129
               130         130
               131         131
               132         132
               133         133
               134         134
               135         135
               136         136
               137         137
               138         138
               139         139
               140         140
               141         141
               142         142
               143         143
               144         144
               145         145
               146         146
               147         147
               148         148
               149         149
               150         150
               151         151
               152         152
               153         153
               154         154
               155         155
               156         156
               157         157
               158         158
               159         159
               160         160
               161         161
               162         162
               163         163
               164         164
               165         165
               166         166
               167         167
               168         168
               169         169
               170         170
               171         171
               172         172
               173         173
               174         174
               175         175
               176         176
               177         177
               178         178
               179         179
               180         180
               181         181
               182         182
               183         183
               184         184
               185         185
               186         186
               187         187
               188         188
               189         189
               190         190
               191         191
               192         192

----------------------------------------------------------------------------------------

 
 
 KPOINTS: KPOINTS for Gamma Point Calculation     

Automatic generation of k-mesh.
 Grid dimensions read from file:
 generate k-points for:    1    1    1

 Generating k-lattice:

  Cartesian coordinates                     Fractional coordinates (reciprocal lattice)
     0.082398862  0.000000000  0.000000000     1.000000000  0.000000000  0.000000000
     0.000000000  0.082398862  0.000000000     0.000000000  1.000000000  0.000000000
     0.000000000  0.000000000  0.082398862     0.000000000  0.000000000  1.000000000

  Length of vectors
     0.082398862  0.082398862  0.082398862

  Shift w.r.t. Gamma in fractional coordinates (k-lattice)
     0.000000000  0.000000000  0.000000000

 
 Subroutine IBZKPT returns following result:
 ===========================================
 
 Found      1 irreducible k-points:
 
 Following reciprocal coordinates:
            Coordinates               Weight
  0.000000  0.000000  0.000000      1.000000
 
 Following cartesian coordinates:
            Coordinates               Weight
  0.000000  0.000000  0.000000      1.000000
 
 
 Subroutine IBZKPT_HF returns following result:
 ==============================================
 
 Found      1 k-points in 1st BZ
 the following      1 k-points will be used (e.g. in the exchange kernel)
 Following reciprocal coordinates:   # in IRBZ
  0.000000  0.000000  0.000000    1.00000000   1 t-inv F


--------------------------------------------------------------------------------------------------------




 Dimension of arrays:
   k-points           NKPTS =      1   k-points in BZ     NKDIM =      1   number of bands    NBANDS=    384
   number of dos      NEDOS =      2   number of ions     NIONS =    192
   non local maximal  LDIM  =      4   non local SUM 2l+1 LMDIM =      8
   total plane-waves  NPLWV = ******
   max r-space proj   IRMAX =      1   max aug-charges    IRDMAX=  12740
   dimension x,y,z NGX =   120 NGY =  120 NGZ =  120
   dimension x,y,z NGXF=   240 NGYF=  240 NGZF=  240
   support grid    NGXF=   240 NGYF=  240 NGZF=  240
   ions per type =             128  64
   NGX,Y,Z   is equivalent  to a cutoff of  16.44, 16.44, 16.44 a.u.
   NGXF,Y,Z  is equivalent  to a cutoff of  32.88, 32.88, 32.88 a.u.

 SYSTEM =  Bulk Water                              
 POSCAR =  Generated POSCAR                        

 Startparameter for this run:
   NWRITE =      2    write-flag & timer
   PREC   = accura    normal or accurate (medium, high low for compatibility)
   ISTART =      0    job   : 0-new  1-cont  2-samecut
   ICHARG =      2    charge: 1-file 2-atom 10-const
   ISPIN  =      1    spin polarized calculation?
   LNONCOLLINEAR =      F non collinear calculations
   LSORBIT =      F    spin-orbit coupling
   INIWAV =      1    electr: 0-lowe 1-rand  2-diag
   LASPH  =      T    aspherical Exc in radial PAW
 Electronic Relaxation 1
   ENCUT  =  900.0 eV  66.15 Ry    8.13 a.u.  29.69 29.69 29.69*2*pi/ulx,y,z
   ENINI  =  900.0     initial cutoff
   ENAUG  =  605.4 eV  augmentation charge cutoff
   NELM   =     70;   NELMIN=  5; NELMDL= -5     # of ELM steps 
   EDIFF  = 0.1E-05   stopping-criterion for ELM
   LREAL  =      F    real-space projection
   NLSPLINE    = F    spline interpolate recip. space projectors
   LCOMPAT=      F    compatible to vasp.4.4
   GGA_COMPAT  = T    GGA compatible to vasp.4.4-vasp.4.6
   LMAXPAW     = -100 max onsite density
   LMAXMIX     =    2 max onsite mixed and CHGCAR
   VOSKOWN=      0    Vosko Wilk Nusair interpolation
   ROPT   =    0.00000   0.00000
 Ionic relaxation
   EDIFFG = 0.1E-04   stopping-criterion for IOM
   NSW    =      0    number of steps for IOM
   NBLOCK =      1;   KBLOCK =      1    inner block; outer block 
   IBRION =     -1    ionic relax: 0-MD 1-quasi-New 2-CG
   NFREE  =      0    steps in history (QN), initial steepest desc. (CG)
   ISIF   =      0    stress and relaxation
   IWAVPR =     10    prediction:  0-non 1-charg 2-wave 3-comb
   ISYM   =      3    0-nonsym 1-usesym 2-fastsym
   LCORR  =      T    Harris-Foulkes like correction to forces

   POTIM  = 0.5000    time-step for ionic-motion
   TEIN   =    0.0    initial temperature
   TEBEG  =    0.0;   TEEND  =   0.0 temperature during run
   SMASS  =  -3.00    Nose mass-parameter (am)
   estimated Nose-frequenzy (Omega)   =  0.10E-29 period in steps = 0.13E+47 mass=  -0.337E-26a.u.
   SCALEE = 1.0000    scale energy and forces
   NPACO  =    256;   APACO  = 10.0  distance and # of slots for P.C.
   PSTRESS=    0.0 pullay stress

  Mass of Ions in am
   POMASS =   1.00 16.00
  Ionic Valenz
   ZVAL   =   1.00  6.00
  Atomic Wigner-Seitz radii
   RWIGS  =  -1.00 -1.00
  virtual crystal weights 
   VCA    =   1.00  1.00
   NELECT =     512.0000    total number of electrons
   NUPDOWN=      -1.0000    fix difference up-down

 DOS related values:
   EMIN   =  10.00;   EMAX   =-10.00  energy-range for DOS
   EFERMI =   0.00;   METHOD = LEGACY      
   ISMEAR =     0;   SIGMA  =   0.05  broadening in eV -4-tet -1-fermi 0-gaus

 Electronic relaxation 2 (details)
   IALGO  =     38    algorithm
   LDIAG  =      T    sub-space diagonalisation (order eigenvalues)
   LSUBROT=      F    optimize rotation matrix (better conditioning)
   TURBO    =      0    0=normal 1=particle mesh
   IRESTART =      0    0=no restart 2=restart with 2 vectors
   NREBOOT  =      0    no. of reboots
   NMIN     =      0    reboot dimension
   EREF     =   0.00    reference energy to select bands
   IMIX   =      1    mixing-type and parameters
     AMIX     =   0.40;   BMIX     =  1.00
     AMIX_MAG =   1.60;   BMIX_MAG =  1.00
     AMIN     =   0.10
     WC   =   100.;   INIMIX=   1;  MIXPRE=   1;  MAXMIX= -45

 Intra band minimization:
   WEIMIN = 0.0000     energy-eigenvalue tresh-hold
   EBREAK =  0.65E-09  absolut break condition
   DEPER  =   0.30     relativ break condition  

   TIME   =   0.40     timestep for ELM

  volume/ion in A,a.u.               =       9.31        62.82
  Fermi-wavevector in a.u.,A,eV,Ry     =   1.079160  2.039318 15.845172  1.164587
  Thomas-Fermi vector in A             =   2.215118
 
 Write flags
   LWAVE        =      F    write WAVECAR
   LDOWNSAMPLE  =      F    k-point downsampling of WAVECAR
   LCHARG       =      F    write CHGCAR
   LVTOT        =      F    write LOCPOT, total local potential
   LVHAR        =      F    write LOCPOT, Hartree potential only
   LELF         =      F    write electronic localiz. function (ELF)
   LORBIT       =      0    0 simple, 1 ext, 2 COOP (PROOUT), +10 PAW based schemes


 Dipole corrections
   LMONO  =      F    monopole corrections only (constant potential shift)
   LDIPOL =      F    correct potential (dipole corrections)
   IDIPOL =      0    1-x, 2-y, 3-z, 4-all directions 
   EPSILON=  1.0000000 bulk dielectric constant

 Exchange correlation treatment:
   GGA     =    --    GGA type
   LEXCH   =     8    internal setting for exchange type
   LIBXC   =     F    Libxc                    
   VOSKOWN =     0    Vosko Wilk Nusair interpolation
   EXXOEP  =     0    0=HF, 1=EXX-LHF (local Hartree Fock) 2=EXX OEP
   LHFCALC =     T    Hartree Fock is set to
   LSYMGRAD=     F    symmetrize gradient (conserves proper symmetry)
   PRECFOCK=normal    Normal, Fast or Accurate (Low or Medium for compatibility)
   LRHFCALC=     F    long range Hartree Fock
   LRSCOR  =     F    long range correlation only (use DFT for short range part)
   LTHOMAS =     F    Thomas Fermi screening in HF
   LMODELHF=     F    short range full HF, long range fraction AEXX
   FOCKCORR=     1    mode to apply convergence corrections
   LFOCKACE=     T    use Adeptively-Compressed-Exchange operator
   ENCUT4O =  -1.0   cutoff for four orbital integrals eV
   LMAXFOCK=     4    L truncation for augmentation on plane wave grid
   LMAXFOCKAE=  -1    L truncation for all-electron charge restoration on plane wave grid
   NMAXFOCKAE=   1    number of basis functions for all-electron charge restoration
   LFOCKAEDFT=     F  apply the AE augmentation even for DFT
   NKREDX  =     1    reduce k-point grid by
   NKREDY  =     1    reduce k-point grid by
   NKREDZ  =     1    reduce k-point grid by
   SHIFTRED=     F    shift reduced grid of Gamma
   HFKIDENT=     F    idential grid for each k-point
   ODDONLY =     F    use only odd q-grid points
   EVENONLY=     F    use only even q-grid points
   HFALPHA =   -1.0000 decay constant for conv. correction
   MCALPHA =    0.0000 extent of test-charge in conv. correction in multipole expansion
   AEXX    =    0.2500 exact exchange contribution
   HFSCREEN=    0.0000 screening length (either q_TF or 0.3 A-1)
   HFSCREENC=   0.0000 screening length for correlation (either q_TF or 0.3 A-1)
   HFRCUT  =    0.0000 spherical cutoff for potential kernel
   ALDAX   =    0.7500 LDA exchange part
   AGGAX   =    0.7500 GGA exchange part
   ALDAC   =    1.0000 LDA correlation
   AGGAC   =    1.0000 GGA correlation
   ENCUTFOCK=  -1.0 apply spherical cutoff to Coloumb kernel
   NBANDSGWLOW=     1    first orbital included in HF term
   NBLOCK_FOCK=    64    blocking factor in FOCK_ACC

 Linear response parameters
   LEPSILON=     F    determine dielectric tensor
   LRPA    =     F    only Hartree local field effects (RPA)
   LNABLA  =     F    use nabla operator in PAW spheres
   LVEL    =     F    velocity operator in full k-point grid
   CSHIFT  =0.1000    complex shift for real part using Kramers Kronig
   OMEGAMAX=  -1.0    maximum frequency
   DEG_THRESHOLD= 0.2000000E-02 threshold for treating states as degnerate
   RTIME   =   -0.100 relaxation time in fs
  (WPLASMAI=    0.000 imaginary part of plasma frequency in eV, 0.658/RTIME)
   DFIELD  = 0.0000000 0.0000000 0.0000000 field for delta impulse in time
 
  Optional k-point grid parameters
   LKPOINTS_OPT  =     F    use optional k-point grid
   KPOINTS_OPT_MODE=     1    mode for optional k-point grid
 
 Orbital magnetization related:
   ORBITALMAG=     F  switch on orbital magnetization
   LCHIMAG   =     F  perturbation theory with respect to B field
   DQ        =  0.001000  dq finite difference perturbation B field
   LLRAUG    =     F  two centre corrections for induced B field
   LBONE     =     F  B-component reconstruction in AE one-centre
   LVGVCALC  =     T  calculate vGv susceptibility
   LVGVAPPL  =     F  apply vGv susceptibility instead of pGv for G=0

 Random number generation:
   RANDOM_GENERATOR = DEFAULT
   PCG_SEED         = not used


--------------------------------------------------------------------------------------------------------


 Static calculation
 charge density and potential will be updated during run
 non-spin polarized calculation
 Variant of blocked Davidson
 Davidson routine will perform the subspace rotation
 perform sub-space diagonalisation
    after iterative eigenvector-optimisation
 Kerker-like  mixing scheme
 using additional bands          128
 reciprocal scheme for non local part
 use partial core corrections
 calculate Harris-corrections to forces 
   (improved forces if not selfconsistent)
 use gradient corrections 
 use of overlap-Matrix (Vanderbilt PP)
 Gauss-broadening in eV      SIGMA  =   0.05


--------------------------------------------------------------------------------------------------------


  energy-cutoff  :      900.00
  volume of cell :     1787.46
      direct lattice vectors                 reciprocal lattice vectors
    12.136090000  0.000000000  0.000000000     0.082398862  0.000000000  0.000000000
     0.000000000 12.136090000  0.000000000     0.000000000  0.082398862  0.000000000
     0.000000000  0.000000000 12.136090000     0.000000000  0.000000000  0.082398862

  length of vectors
    12.136090000 12.136090000 12.136090000     0.082398862  0.082398862  0.082398862


 
 k-points in units of 2pi/SCALE and weight: KPOINTS for Gamma Point Calculation     
   0.00000000  0.00000000  0.00000000       1.000
 
 k-points in reciprocal lattice and weights: KPOINTS for Gamma Point Calculation     
   0.00000000  0.00000000  0.00000000       1.000
 
 position of ions in fractional coordinates (direct lattice) 
   0.92281888  0.29781412  0.24706260
   0.88788852  0.43880508  0.52044085
   0.99209770  0.95345948  0.90788417
   0.77988347  0.10353368  0.46007627
   0.50987353  0.19625242  0.17137422
   0.02912792  0.47526419  0.33940042
   0.63707413  0.04237246  0.28493312
   0.43307062  0.72334656  0.37607071
   0.18335757  0.52897424  0.40529042
   0.49135933  0.55386982  0.86445882
   0.91199208  0.90662668  0.27841883
   0.30814521  0.98540057  0.86188492
   0.27081243  0.47266121  0.19001194
   0.08658126  0.52642408  0.97234834
   0.12122158  0.23106404  0.45106183
   0.97848739  0.80695265  0.36819297
   0.19777086  0.78424081  0.07382411
   0.04917473  0.11675383  0.63735692
   0.52377108  0.93068838  0.57103606
   0.25844650  0.25871026  0.33310836
   0.26477028  0.96044130  0.33020198
   0.67655588  0.86406429  0.04823020
   0.38406628  0.76739082  0.02804247
   0.42707388  0.73331254  0.19431481
   0.76776903  0.32514541  0.63351598
   0.43168953  0.81194429  0.64810347
   0.26084101  0.49046011  0.58195078
   0.85794502  0.68801822  0.57359833
   0.77160923  0.49343174  0.31258725
   0.76809055  0.28343264  0.93779858
   0.27695806  0.80085670  0.27055872
   0.73568027  0.22223945  0.36527176
   0.11635617  0.21749048  0.20020064
   0.70132670  0.76224937  0.63348286
   0.28990680  0.34914004  0.64329030
   0.78717379  0.33250413  0.08827233
   0.50851419  0.37278423  0.83079204
   0.59042468  0.67139252  0.85889401
   0.96821085  0.69833241  0.19702631
   0.04287806  0.16646383  0.88545553
   0.47892962  0.30698792  0.57593871
   0.49400482  0.44990067  0.15110971
   0.94266119  0.95570163  0.65116640
   0.41588345  0.00355699  0.44674974
   0.14183382  0.62630114  0.74212963
   0.42748290  0.02520507  0.98922577
   0.42111652  0.50393718  0.35819823
   0.45849915  0.46861469  0.57558505
   0.70276835  0.97876375  0.59310717
   0.20107522  0.27652044  0.90311196
   0.31113744  0.32665793  0.06751252
   0.56880676  0.85765869  0.91718132
   0.72119661  0.80854122  0.82539335
   0.11153172  0.82104162  0.78408013
   0.62141810  0.34665061  0.45405415
   0.55668844  0.17756436  0.84166737
   0.69875743  0.80652764  0.25355308
   0.28781346  0.54557382  0.89116140
   0.91710164  0.48344969  0.88949859
   0.27833347  0.04486651  0.66727710
   0.71053371  0.52648258  0.80765329
   0.17822717  0.80511392  0.42874023
   0.86696803  0.91720332  0.48334076
   0.01379489  0.06060362  0.16562905
   0.94020512  0.21322971  0.15591224
   0.77501337  0.39817272  0.49883702
   0.92711755  0.84505660  0.86937580
   0.84072712  0.10202075  0.59257133
   0.56608512  0.27291813  0.08939889
   0.00463675  0.36958048  0.39535765
   0.58114409  0.97327838  0.20018705
   0.54895564  0.73321778  0.39168711
   0.10703464  0.62814729  0.37184637
   0.57111203  0.49348019  0.94398451
   0.85473081  0.91510149  0.16782679
   0.25114349  0.89872537  0.77528685
   0.20772234  0.48423471  0.09055866
   0.10441394  0.63630988  0.02610800
   0.13164734  0.34661114  0.52428739
   0.08022675  0.80838952  0.27868539
   0.07646746  0.83529325  0.03632546
   0.97871143  0.11658088  0.74016491
   0.45924338  0.85651178  0.49415092
   0.35672898  0.19884460  0.38428209
   0.18750586  0.93791336  0.22557166
   0.78110569  0.79072428  0.09863556
   0.31872292  0.87560351  0.98552310
   0.54357417  0.76203851  0.12433881
   0.72889670  0.19151522  0.63670886
   0.36179676  0.72530807  0.71863541
   0.13402925  0.51077530  0.63560793
   0.97379148  0.74023858  0.58017154
   0.69743179  0.50681084  0.22513668
   0.82828308  0.25092538  0.81597887
   0.26215437  0.66609262  0.29368792
   0.82871996  0.17451378  0.29561399
   0.17634205  0.32162937  0.22051542
   0.65670747  0.69652788  0.52871312
   0.29743039  0.21652237  0.64091911
   0.68364836  0.40949614  0.06141731
   0.42874781  0.26771942  0.74974304
   0.51613617  0.76227137  0.79865797
   0.87203572  0.62288727  0.20435733
   0.92705460  0.15586989  0.91946047
   0.58558251  0.34377736  0.61749254
   0.53983087  0.59043382  0.10637957
   0.90628464  0.82825127  0.68346576
   0.43068509  0.04688528  0.31528021
   0.03313472  0.61680146  0.67899299
   0.33737670  0.11639037  0.01310991
   0.39424905  0.37302072  0.33399167
   0.41943979  0.60562174  0.60762288
   0.62339889  0.99472079  0.70370589
   0.08117565  0.32073584  0.88148959
   0.37787648  0.29071925  0.97614092
   0.59720256  0.99993935  0.92481672
   0.79530211  0.70599625  0.81423959
   0.16279461  0.81082194  0.64749602
   0.66334487  0.35419958  0.32253683
   0.67324163  0.14565787  0.85261546
   0.74578559  0.70848445  0.31991646
   0.33994087  0.65563785  0.89227989
   0.03195889  0.48724037  0.82796411
   0.28574870  0.04697015  0.53792795
   0.80480146  0.50449346  0.70659446
   0.24300842  0.72081453  0.50457264
   0.80652879  0.85885503  0.40821706
   0.04390261  0.09734470  0.04925656
   0.88202065  0.26333152  0.19276958
   0.81915518  0.42566848  0.56193181
   0.99882236  0.87474895  0.87675503
   0.76980271  0.09219172  0.54170017
   0.56027452  0.26138254  0.16682020
   0.96832810  0.42729858  0.36677184
   0.56949372  0.01044414  0.26638992
   0.48987936  0.72559094  0.42217658
   0.16297176  0.57294714  0.34448006
   0.56597941  0.51166718  0.87039327
   0.91942199  0.94459179  0.20916869
   0.30310108  0.97999199  0.77122681
   0.23950391  0.42848941  0.13880624
   0.14008095  0.57516614  0.01122759
   0.07254635  0.27923236  0.50405229
   0.05382805  0.76718811  0.34237279
   0.11932484  0.79223152  0.08947552
   0.97296048  0.09875125  0.66821571
   0.44612004  0.91291512  0.53639467
   0.31379934  0.26960454  0.40347072
   0.21457875  0.90546313  0.29066816
   0.71157267  0.81806035  0.11340918
   0.31748743  0.79135735  0.98821927
   0.48292539  0.70769787  0.11007227
   0.71080908  0.27122253  0.66418978
   0.42341232  0.74079279  0.68160651
   0.19170260  0.45117398  0.59256746
   0.93908755  0.66866709  0.60123318
   0.74385506  0.55025614  0.25943076
   0.80137993  0.21055735  0.88801756
   0.32260374  0.71139444  0.26505835
   0.76392487  0.14731120  0.33693966
   0.13524653  0.26527737  0.26397242
   0.72216604  0.70364887  0.58100410
   0.34384666  0.28063816  0.65013114
   0.74189859  0.36171395  0.03494981
   0.47059934  0.28515700  0.83796478
   0.57673452  0.74845300  0.85194630
   0.89531274  0.68099841  0.15952082
   0.98727004  0.09851427  0.89955150
   0.53676069  0.35919378  0.56665969
   0.54745820  0.49635888  0.11484556
   0.93011341  0.88413468  0.61632898
   0.38104109  0.05142760  0.38507888
   0.09164492  0.56862416  0.71981066
   0.35192257  0.04505529  0.98350325
   0.43347792  0.43691057  0.30376110
   0.40363297  0.52062345  0.56956170
   0.64358669  0.94594338  0.63660957
   0.11476167  0.25791997  0.87251092
   0.32031956  0.26844420  0.02186643
   0.58945360  0.92533485  0.97466696
   0.80007894  0.78922264  0.80549411
   0.16728963  0.79415108  0.73989374
   0.68300309  0.34453040  0.40353384
   0.60596436  0.11057276  0.83249638
   0.70387390  0.78592776  0.33602734
   0.35137577  0.58071644  0.86622594
   0.99424518  0.46062933  0.89174182
   0.25409073  0.08808900  0.59403127
   0.78140381  0.55723532  0.77219220
   0.20944777  0.79572169  0.50200196
   0.85115643  0.91338182  0.41015574
   0.05467807  0.11580583  0.12293935
 
 position of ions in cartesian coordinates  (Angst):
  11.19941300  3.61429900  2.99837400
  10.77549500  5.32537800  6.31611700
  12.04018700 11.57127000 11.01816400
   9.46473600  1.25649400  5.58352700
   6.18787100  2.38173700  2.07981300
   0.35349900  5.76784900  4.11899400
   7.73158900  0.51423600  3.45797400
   5.25578400  8.77859900  4.56402800
   2.22524400  6.41967900  4.91864100
   5.96318100  6.72181400 10.49115000
  11.06801800 11.00290300  3.37891600
   3.73967800 11.95891000 10.45991300
   3.28660400  5.73625900  2.30600200
   1.05075800  6.38873000 11.80050700
   1.47115600  2.80421400  5.47412700
  11.87501100  9.79325000  4.46842300
   2.40016500  9.51761700  0.89593600
   0.59678900  1.41693500  7.73502100
   6.35653300 11.29491800  6.93014500
   3.13653000  3.13973100  4.04263300
   3.21327600 11.65600200  4.00736100
   8.21074300 10.48636200  0.58532600
   4.66106300  9.31312400  0.34032600
   5.18300700  8.89954700  2.35822200
   9.31771400  3.94599400  7.68840700
   5.23902300  9.85382900  7.86544200
   3.16559000  5.95226800  7.06260700
  10.41209800  8.34985100  6.96124100
   9.36431900  5.98833200  3.79358700
   9.32161600  3.43976400 11.38120800
   3.36118800  9.71926900  3.28352500
   8.92828200  2.69711800  4.43297100
   1.41210900  2.63948400  2.42965300
   8.51136400  9.25072700  7.68800500
   3.51833500  4.23719500  7.80702900
   9.55321200  4.03530000  1.07128100
   6.17137400  4.52414300 10.08256700
   7.16544700  8.14808000 10.42361500
  11.75029400  8.47502500  2.39112900
   0.52037200  2.02022000 10.74596800
   5.81233300  3.72563300  6.98964400
   5.99528700  5.46003500  1.83388100
  11.44022100 11.59848100  7.90261400
   5.04719900  0.04316800  5.42179500
   1.72130800  7.60084700  9.00655200
   5.18797100  0.30589100 12.00533300
   5.11070800  6.11582700  4.34712600
   5.56438700  5.68715000  6.98535200
   8.52886000 11.87836500  7.19800200
   2.44026700  3.35587700 10.96024800
   3.77599200  3.96435000  0.81933800
   6.90309000 10.40862300 11.13099500
   8.75250700  9.81252900 10.01704800
   1.35355900  9.96423500  9.51566700
   7.54158600  4.20698300  5.51044200
   6.75602100  2.15493700 10.21455100
   8.48018300  9.78809200  3.07714300
   3.49293000  6.62113300 10.81521500
  11.13002800  5.86718900 10.79503500
   3.37788000  0.54450400  8.09813500
   8.62310100  6.38944000  9.80175300
   2.16298100  9.77093500  5.20323000
  10.52160200 11.13126200  5.86586700
   0.16741600  0.73549100  2.01008900
  11.41041400  2.58777500  1.89216500
   9.40563200  4.83226000  6.05393100
  11.25158200 10.25568300 10.55082300
  10.20314000  1.23813300  7.19149900
   6.87006000  3.31215900  1.08495300
   0.05627200  4.48526200  4.79809600
   7.05281700 11.81179400  2.42948800
   6.66217500  8.89839700  4.75355000
   1.29898200  7.62325200  4.51276100
   6.93106700  5.98892000 11.45628100
  10.37309000 11.10575400  2.03676100
   3.04790000 10.90701200  9.40895100
   2.52093700  5.87671600  1.09902800
   1.26717700  7.72231400  0.31684900
   1.59768400  4.20650400  6.36279900
   0.97363900  9.81068800  3.38215100
   0.92801600 10.13719400  0.44084900
  11.87773000  1.41483600  8.98270800
   5.57341900 10.39470400  5.99706000
   4.32929500  2.41319600  4.66368200
   2.27558800 11.38260100  2.73755800
   9.47956900  9.59630100  1.19705000
   3.86805000 10.62640300 11.96039700
   6.59686500  9.24816800  1.50898700
   8.84595600  2.32424600  7.72715600
   4.39079800  8.80240400  8.72142400
   1.62659100  6.19881500  7.71379500
  11.81802100  8.98360200  7.04101400
   8.46409500  6.15070200  2.73227900
  10.05211800  3.04525300  9.90279300
   3.18152900  8.08376000  3.56422300
  10.05742000  2.11791500  3.58759800
   2.14010300  3.90332300  2.67619500
   7.96986100  8.45312500  6.41651000
   3.60964200  2.62773500  7.77825200
   8.29681800  4.96968200  0.74536600
   5.20332200  3.24906700  9.09894900
   6.26387500  9.25099400  9.69258500
  10.58310400  7.55941600  2.48009900
  11.25081800  1.89165100 11.15865500
   7.10668200  4.17211300  7.49394500
   6.55143600  7.16555800  1.29103200
  10.99875200 10.05173200  8.29460200
   5.22683300  0.56900400  3.82626900
   0.40212600  7.48555800  8.24032000
   4.09443400  1.41252400  0.15910300
   4.78464200  4.52701300  4.05335300
   5.09035900  7.34988000  7.37416600
   7.56562500 12.07202100  8.54023800
   0.98515500  3.89247900 10.69783700
   4.58594300  3.52819500 11.84653400
   7.24770400 12.13535400 11.22365900
   9.65185800  8.56803400  9.88168500
   1.97569000  9.84020800  7.85807000
   8.05041300  4.29859800  3.91433600
   8.17052100  1.76771700 10.34741800
   9.05092100  8.59823100  3.88253500
   4.12555300  7.95688000 10.82878900
   0.38785600  5.91319300 10.04824700
   3.46787200  0.57003400  6.52834200
   9.76714300  6.12257800  8.57529400
   2.94917200  8.74787000  6.12353900
   9.78810600 10.42314200  4.95415900
   0.53280600  1.18138400  0.59778200
  10.70428200  3.19581500  2.33946900
   9.94134100  5.16595100  6.81965500
  12.12179800 10.61603200 10.64037800
   9.34239500  1.11884700  6.57412200
   6.79954200  3.17216200  2.02454500
  11.75171700  5.18573400  4.45117600
   6.91142700  0.12675100  3.23293200
   5.94522000  8.80583700  5.12357300
   1.97784000  6.95333800  4.18064100
   6.86877700  6.20963900 10.56317100
  11.15818800 11.46365100  2.53849000
   3.67846200 11.89327100  9.35967800
   2.90664100  5.20018600  1.68456500
   1.70003500  6.98026800  0.13625900
   0.88042900  3.38878900  6.11722400
   0.65326200  9.31066400  4.15506700
   1.44813700  9.61459300  1.08588300
  11.80793600  1.19845400  8.10952600
   5.41415300 11.07922000  6.50973400
   3.80829700  3.27194500  4.89655700
   2.60414700 10.98878200  3.52757500
   8.63571000  9.92805400  1.37634400
   3.85305600  9.60398400 11.99311800
   5.86082600  8.58868500  1.33584700
   8.62644300  3.29158100  8.06066700
   5.13857000  8.99032800  8.27203800
   2.32652000  5.47548800  7.19145200
  11.39685100  8.11500400  7.29662000
   9.02749200  6.67795800  3.14847500
   9.72561900  2.55534300 10.77706100
   3.91514800  8.63354700  3.21677200
   9.27106100  1.78778200  4.08913000
   1.64136400  3.21943000  3.20359300
   8.76427200  8.53954600  7.05111800
   4.17295400  3.40585000  7.89005000
   9.00374800  4.38979300  0.42415400
   5.71123600  3.46069100 10.16961600
   6.99930200  9.08329300 10.33929700
  10.86559600  8.26465800  1.93595900
  11.98159800  1.19557800 10.91703800
   6.51417600  4.35920800  6.87703300
   6.64400200  6.02385600  1.39377600
  11.28794000 10.72993800  7.47982400
   4.62434900  0.62413000  4.67335200
   1.11221100  6.90087400  8.73568700
   4.27096400  0.54679500 11.93588400
   5.26072700  5.30238600  3.68647200
   4.89852600  6.31833300  6.91225200
   7.81062600 11.48005400  7.72595100
   1.39275800  3.13014000 10.58887100
   3.88742700  3.25786300  0.26537300
   7.15366200 11.22994700 11.82864600
   9.70983000  9.57807700  9.77554900
   2.03024200  9.63788900  8.97941700
   8.28898700  4.18125200  4.89732300
   7.35403800  1.34192100 10.10325100
   8.54227700  9.53809000  4.07805800
   4.26432800  7.04762700 10.51259600
  12.06624900  5.59023900 10.82225900
   3.08366800  1.06905600  7.20921700
   9.48318700  6.76265800  9.37139400
   2.54187700  9.65695000  6.09234100
  10.32971100 11.08488400  4.97768700
   0.66357800  1.40543000  1.49200300
 


--------------------------------------------------------------------------------------------------------


 k-point   1 :   0.0000 0.0000 0.0000  plane waves:  109607

 maximum and minimum number of plane-waves per node :     54833    54774

 maximum number of plane-waves:    109607
 maximum index in each direction: 
   IXMAX=   29   IYMAX=   29   IZMAX=   29
   IXMIN=  -29   IYMIN=  -29   IZMIN=  -29


 parallel 3D FFT for wavefunctions:
    minimum data exchange during FFTs selected (reduces bandwidth)
 parallel 3D FFT for charge:
    minimum data exchange during FFTs selected (reduces bandwidth)


 FFT grid for exact exchange (Hartree Fock) 
  NGX = 90; NGY = 90; NGZ = 90

 
 Radii for the augmentation spheres in the non-local exchange
 for species   1 augmentation radius   0.650 (default was   0.520)
       energy cutoff for augmentation   3600.0
 for species   2 augmentation radius   0.902 (default was   0.722)
       energy cutoff for augmentation   3600.0

 real space projection operators:
  total allocation   :       9867.02 KBytes
  max/ min on nodes  :       4934.32       4932.70

 Maximum index for augmentation-charges in exchange          640
  SETUP_FOCK is finished

 total amount of memory used by VASP MPI-rank0   342063. kBytes
=======================================================================

   base      :      30000. kBytes
   nonl-proj :     175513. kBytes
   fftplans  :      50840. kBytes
   grid      :      69741. kBytes
   one-center:        294. kBytes
   HF        :          9. kBytes
   nonlr-proj:      10346. kBytes
   wavefun   :       5320. kBytes
 
     INWAV:  cpu time      0.0000: real time      0.0001
 initial charge density was supplied:
 charge density of overlapping atoms calculated
 number of electron     512.0000000 magnetization 
 keeping initial charge density in first step


--------------------------------------------------------------------------------------------------------


 Maximum index for augmentation-charges          639 (set IRDMAX)


--------------------------------------------------------------------------------------------------------


    FEWALD:  cpu time      0.0031: real time      0.0031


--------------------------------------- Ionic step        1  -------------------------------------------




--------------------------------------- Iteration      1(   1)  ---------------------------------------


    POTLOK:  cpu time      0.2563: real time      0.2575
    SETDIJ:  cpu time      0.3163: real time      0.3171
     EDDAV:  cpu time     17.3017: real time     17.4082
       DOS:  cpu time      0.0006: real time      0.0006
    --------------------------------------------
      LOOP:  cpu time     17.8749: real time     17.9835

 eigenvalue-minimisations  :   768
 total energy-change (2. order) : 0.4684092E+04  (-0.3237427E+05)
 number of electron     512.0000000 magnetization 
 augmentation part      512.0000000 magnetization 

 Free energy of the ion-electron system (eV)
  ---------------------------------------------------
  alpha Z        PSCENC =       513.87622924
  Ewald energy   TEWEN  =    -13351.16202809
  -Hartree energ DENC   =    -12512.22766526
  -exchange      EXHF   =         0.00000000
  -V(xc)+E(xc)   XCENC  =      1822.59797723
  PAW double counting   =     22654.83393349   -22787.31024490
  entropy T*S    EENTRO =        -0.05379416
  eigenvalues    EBANDS =      -625.38046621
  atomic energy  EATOM  =     28968.91843728
  Solvation  Ediel_sol  =         0.00000000
  ---------------------------------------------------
  free energy    TOTEN  =      4684.09237862 eV

  energy without entropy =     4684.14617278  energy(sigma->0) =     4684.11927570
  exchange ACFDT corr.  =         0.00000000  see jH, gK, PRB 81, 115126


--------------------------------------------------------------------------------------------------------




--------------------------------------- Iteration      1(   2)  ---------------------------------------


     EDDAV:  cpu time     20.2623: real time     20.3862
       DOS:  cpu time      0.0002: real time      0.0002
    --------------------------------------------
      LOOP:  cpu time     20.2625: real time     20.3864

 eigenvalue-minimisations  :   960
 total energy-change (2. order) :-0.4032807E+04  (-0.3802484E+04)
 number of electron     512.0000000 magnetization 
 augmentation part      512.0000000 magnetization 

 Free energy of the ion-electron system (eV)
  ---------------------------------------------------
  alpha Z        PSCENC =       513.87622924
  Ewald energy   TEWEN  =    -13351.16202809
  -Hartree energ DENC   =    -12512.22766526
  -exchange      EXHF   =         0.00000000
  -V(xc)+E(xc)   XCENC  =      1822.59797723
  PAW double counting   =     22654.83393349   -22787.31024490
  entropy T*S    EENTRO =         0.00000000
  eigenvalues    EBANDS =     -4658.24167475
  atomic energy  EATOM  =     28968.91843728
  Solvation  Ediel_sol  =         0.00000000
  ---------------------------------------------------
  free energy    TOTEN  =       651.28496424 eV

  energy without entropy =      651.28496424  energy(sigma->0) =      651.28496424
  exchange ACFDT corr.  =         0.00000000  see jH, gK, PRB 81, 115126


--------------------------------------------------------------------------------------------------------




--------------------------------------- Iteration      1(   3)  ---------------------------------------


     EDDAV:  cpu time     20.2657: real time     20.3909
       DOS:  cpu time      0.0002: real time      0.0002
    --------------------------------------------
      LOOP:  cpu time     20.2658: real time     20.3911

 eigenvalue-minimisations  :   960
 total energy-change (2. order) :-0.3605963E+03  (-0.3579424E+03)
 number of electron     512.0000000 magnetization 
 augmentation part      512.0000000 magnetization 

 Free energy of the ion-electron system (eV)
  ---------------------------------------------------
  alpha Z        PSCENC =       513.87622924
  Ewald energy   TEWEN  =    -13351.16202809
  -Hartree energ DENC   =    -12512.22766526
  -exchange      EXHF   =         0.00000000
  -V(xc)+E(xc)   XCENC  =      1822.59797723
  PAW double counting   =     22654.83393349   -22787.31024490
  entropy T*S    EENTRO =         0.00000000
  eigenvalues    EBANDS =     -5018.83801613
  atomic energy  EATOM  =     28968.91843728
  Solvation  Ediel_sol  =         0.00000000
  ---------------------------------------------------
  free energy    TOTEN  =       290.68862286 eV

  energy without entropy =      290.68862286  energy(sigma->0) =      290.68862286
  exchange ACFDT corr.  =         0.00000000  see jH, gK, PRB 81, 115126


--------------------------------------------------------------------------------------------------------




--------------------------------------- Iteration      1(   4)  ---------------------------------------


     EDDAV:  cpu time     20.3062: real time     20.4296
       DOS:  cpu time      0.0002: real time      0.0002
    --------------------------------------------
      LOOP:  cpu time     20.3063: real time     20.4298

 eigenvalue-minimisations  :   960
 total energy-change (2. order) :-0.4741309E+01  (-0.4733605E+01)
 number of electron     512.0000000 magnetization 
 augmentation part      512.0000000 magnetization 

 Free energy of the ion-electron system (eV)
  ---------------------------------------------------
  alpha Z        PSCENC =       513.87622924
  Ewald energy   TEWEN  =    -13351.16202809
  -Hartree energ DENC   =    -12512.22766526
  -exchange      EXHF   =         0.00000000
  -V(xc)+E(xc)   XCENC  =      1822.59797723
  PAW double counting   =     22654.83393349   -22787.31024490
  entropy T*S    EENTRO =         0.00000000
  eigenvalues    EBANDS =     -5023.57932507
  atomic energy  EATOM  =     28968.91843728
  Solvation  Ediel_sol  =         0.00000000
  ---------------------------------------------------
  free energy    TOTEN  =       285.94731392 eV

  energy without entropy =      285.94731392  energy(sigma->0) =      285.94731392
  exchange ACFDT corr.  =         0.00000000  see jH, gK, PRB 81, 115126


--------------------------------------------------------------------------------------------------------




--------------------------------------- Iteration      1(   5)  ---------------------------------------


    POTLOK:  cpu time      0.2370: real time      0.2382
    SETDIJ:  cpu time      0.3162: real time      0.3170
     EDDAV:  cpu time    124.6273: real time    125.3845
       DOS:  cpu time      0.0002: real time      0.0002
    CHARGE:  cpu time      1.0085: real time      1.0131
    MIXING:  cpu time      0.0008: real time      0.0008
    --------------------------------------------
      LOOP:  cpu time    126.1899: real time    126.9537

 eigenvalue-minimisations  :  1024
 total energy-change (2. order) :-0.1733719E+04  (-0.2700686E+02)
 number of electron     511.9999997 magnetization 
 augmentation part       50.0333791 magnetization 

 Free energy of the ion-electron system (eV)
  ---------------------------------------------------
  alpha Z        PSCENC =       513.87622924
  Ewald energy   TEWEN  =    -13351.16202809
  -Hartree energ DENC   =    -12512.22766526
  -exchange      EXHF   =      1671.00872563
  -V(xc)+E(xc)   XCENC  =      1822.59797723
  PAW double counting   =     22654.83393349   -22778.44913707
  entropy T*S    EENTRO =         0.00000000
  eigenvalues    EBANDS =     -8437.16847826
  atomic energy  EATOM  =     28968.91843728
  Solvation  Ediel_sol  =         0.00000000
  ---------------------------------------------------
  free energy    TOTEN  =     -1447.77200582 eV

  energy without entropy =    -1447.77200582  energy(sigma->0) =    -1447.77200582
  exchange ACFDT corr.  =         0.00000000  see jH, gK, PRB 81, 115126


--------------------------------------------------------------------------------------------------------




--------------------------------------- Iteration      1(   6)  ---------------------------------------


    POTLOK:  cpu time      0.2266: real time      0.2314
    SETDIJ:  cpu time      0.3182: real time      0.3190
     EDDAV:  cpu time    122.8101: real time    123.4573
       DOS:  cpu time      0.0002: real time      0.0002
    CHARGE:  cpu time      1.0002: real time      1.0049
    MIXING:  cpu time      0.0007: real time      0.0007
    --------------------------------------------
      LOOP:  cpu time    124.3561: real time    125.0135

 eigenvalue-minimisations  :   896
 total energy-change (2. order) : 0.2094432E+03  (-0.7568503E+01)
 number of electron     511.9999995 magnetization 
 augmentation part       47.1085740 magnetization 

 Free energy of the ion-electron system (eV)
  ---------------------------------------------------
  alpha Z        PSCENC =       513.87622924
  Ewald energy   TEWEN  =    -13351.16202809
  -Hartree energ DENC   =    -13589.13552590
  -exchange      EXHF   =      1767.14469500
  -V(xc)+E(xc)   XCENC  =      1942.58004174
  PAW double counting   =     28702.02766832   -28834.26348046
  entropy T*S    EENTRO =         0.00000000
  eigenvalues    EBANDS =     -7358.31487507
  atomic energy  EATOM  =     28968.91843728
  Solvation  Ediel_sol  =         0.00000000
  ---------------------------------------------------
  free energy    TOTEN  =     -1238.32883794 eV

  energy without entropy =    -1238.32883794  energy(sigma->0) =    -1238.32883794
  exchange ACFDT corr.  =         0.00000000  see jH, gK, PRB 81, 115126


--------------------------------------------------------------------------------------------------------




--------------------------------------- Iteration      1(   7)  ---------------------------------------


    POTLOK:  cpu time      0.2275: real time      0.2318
    SETDIJ:  cpu time      0.3160: real time      0.3168
     EDDAV:  cpu time    123.9966: real time    124.6399
       DOS:  cpu time      0.0002: real time      0.0002
    CHARGE:  cpu time      1.0034: real time      1.0081
    MIXING:  cpu time      0.0007: real time      0.0007
    --------------------------------------------
      LOOP:  cpu time    125.5443: real time    126.1975

 eigenvalue-minimisations  :   960
 total energy-change (2. order) : 0.3066083E+01  (-0.5688794E+01)
 number of electron     511.9999995 magnetization 
 augmentation part       44.5519925 magnetization 

 Free energy of the ion-electron system (eV)
  ---------------------------------------------------
  alpha Z        PSCENC =       513.87622924
  Ewald energy   TEWEN  =    -13351.16202809
  -Hartree energ DENC   =    -14045.54778569
  -exchange      EXHF   =      1724.12560331
  -V(xc)+E(xc)   XCENC  =      1959.81412994
  PAW double counting   =     32215.62335079   -32350.94726738
  entropy T*S    EENTRO =         0.00000000
  eigenvalues    EBANDS =     -6869.96342414
  atomic energy  EATOM  =     28968.91843728
  Solvation  Ediel_sol  =         0.00000000
  ---------------------------------------------------
  free energy    TOTEN  =     -1235.26275475 eV

  energy without entropy =    -1235.26275475  energy(sigma->0) =    -1235.26275475
  exchange ACFDT corr.  =         0.00000000  see jH, gK, PRB 81, 115126


--------------------------------------------------------------------------------------------------------




--------------------------------------- Iteration      1(   8)  ---------------------------------------


    POTLOK:  cpu time      0.2274: real time      0.2324
    SETDIJ:  cpu time      0.3156: real time      0.3163
     EDDAV:  cpu time    123.9300: real time    124.6379
       DOS:  cpu time      0.0002: real time      0.0002
    CHARGE:  cpu time      1.0035: real time      1.0081
    MIXING:  cpu time      0.0007: real time      0.0007
    --------------------------------------------
      LOOP:  cpu time    125.4774: real time    126.1957

 eigenvalue-minimisations  :   960
 total energy-change (2. order) :-0.1417023E+01  (-0.3103877E+00)
 number of electron     511.9999994 magnetization 
 augmentation part       44.0938231 magnetization 

 Free energy of the ion-electron system (eV)
  ---------------------------------------------------
  alpha Z        PSCENC =       513.87622924
  Ewald energy   TEWEN  =    -13351.16202809
  -Hartree energ DENC   =    -14100.44503802
  -exchange      EXHF   =      1687.41119888
  -V(xc)+E(xc)   XCENC  =      1958.39083654
  PAW double counting   =     34037.87562908   -34172.63510924
  entropy T*S    EENTRO =         0.00000000
  eigenvalues    EBANDS =     -6778.90993386
  atomic energy  EATOM  =     28968.91843728
  Solvation  Ediel_sol  =         0.00000000
  ---------------------------------------------------
  free energy    TOTEN  =     -1236.67977818 eV

  energy without entropy =    -1236.67977818  energy(sigma->0) =    -1236.67977818
  exchange ACFDT corr.  =         0.00000000  see jH, gK, PRB 81, 115126


--------------------------------------------------------------------------------------------------------




--------------------------------------- Iteration      1(   9)  ---------------------------------------


    POTLOK:  cpu time      0.2295: real time      0.2333
    SETDIJ:  cpu time      0.3159: real time      0.3166
     EDDAV:  cpu time    124.1584: real time    124.7855
       DOS:  cpu time      0.0002: real time      0.0002
    CHARGE:  cpu time      1.0048: real time      1.0094
    MIXING:  cpu time      0.0007: real time      0.0007
    --------------------------------------------
      LOOP:  cpu time    125.7094: real time    126.3457

 eigenvalue-minimisations  :   960
 total energy-change (2. order) : 0.5914281E+00  (-0.6588079E-01)
 number of electron     511.9999994 magnetization 
 augmentation part       44.3169420 magnetization 

 Free energy of the ion-electron system (eV)
  ---------------------------------------------------
  alpha Z        PSCENC =       513.87622924
  Ewald energy   TEWEN  =    -13351.16202809
  -Hartree energ DENC   =    -14092.45267015
[...]
   -.134E+02 -.103E+02 0.407E+02   0.466E+02 0.584E+01 -.302E+02   -.280E+02 0.399E+01 -.116E+02   -.521E-03 0.176E-02 -.623E-02
   0.220E+02 0.650E+02 -.123E+02   -.345E+02 -.101E+03 -.338E+01   0.951E+01 0.309E+02 0.140E+02   -.153E-02 -.270E-02 0.801E-02
   0.470E+02 0.634E+01 -.295E+02   -.590E+02 0.105E+02 0.623E+02   0.117E+02 -.178E+02 -.310E+02   -.251E-03 -.581E-03 -.726E-02
   0.887E+00 0.750E+02 0.270E+02   0.344E+02 -.900E+02 -.521E+02   -.294E+02 0.143E+02 0.212E+02   -.167E-02 0.269E-02 0.717E-02
   0.507E+02 0.561E+02 -.729E+02   -.363E+02 -.801E+02 0.103E+03   -.130E+02 0.203E+02 -.255E+02   0.201E-02 0.319E-02 0.683E-02
   0.880E+02 -.328E+02 0.268E+01   -.113E+03 0.660E+02 0.398E+01   0.218E+02 -.290E+02 -.261E+01   0.356E-03 -.316E-02 0.148E-02
   -.345E+02 0.274E+02 -.662E+02   0.525E+02 0.335E+01 0.733E+02   -.163E+02 -.291E+02 -.674E+01   0.989E-03 0.291E-02 0.753E-02
   0.832E+01 -.598E+02 -.661E+02   -.709E+01 0.899E+02 0.961E+02   -.291E+00 -.274E+02 -.255E+02   0.189E-03 -.905E-03 -.293E-02
   -.518E+02 -.893E+02 0.487E+02   0.685E+02 0.127E+03 -.851E+02   -.100E+02 -.284E+02 0.295E+02   0.148E-02 -.351E-02 -.639E-02
   -.621E+02 -.663E+01 -.485E+01   0.860E+02 0.367E+02 0.222E+02   -.208E+02 -.261E+02 -.129E+02   0.217E-02 -.296E-02 -.271E-02
 -----------------------------------------------------------------------------------------------
   -.404E+02 -.236E+03 0.735E+02   0.298E-12 -.256E-12 0.178E-12   0.343E+02 0.198E+03 -.618E+02   -.170E-02 0.299E-02 -.265E-02
 
 
 POSITION                                       TOTAL-FORCE (eV/Angst)
 -----------------------------------------------------------------------------------
     11.19941      3.61430      2.99837         1.327355      1.691111      1.614478
     10.77549      5.32538      6.31612        -0.465023     -0.045139      0.887715
     12.04019     11.57127     11.01816         0.014251     -1.928871     -1.471682
      9.46474      1.25649      5.58353         0.430939      0.086734      0.832064
      6.18787      2.38174      2.07981         1.331262      1.519735      0.176559
      0.35350      5.76785      4.11899        -1.287353     -0.881670      0.358947
      7.73159      0.51424      3.45797         1.649878      1.035463      0.620858
      5.25578      8.77860      4.56403        -3.820624     -0.384066     -3.341113
      2.22524      6.41968      4.91864         0.337028     -0.692468      1.010214
      5.96318      6.72181     10.49115         1.596791     -1.802933      0.216844
     11.06802     11.00290      3.37892        -0.207255      0.774227      0.384427
      3.73968     11.95891     10.45991         0.170176      1.047806     -4.242294
      3.28660      5.73626      2.30600         1.992306      1.761625      2.977726
      1.05076      6.38873     11.80051         0.312866      0.683518      0.609521
      1.47116      2.80421      5.47413        -1.884298      1.998302      2.252159
     11.87501      9.79325      4.46842         3.286318     -1.487119     -0.882394
      2.40016      9.51762      0.89594        -0.551523      0.364747     -0.883351
      0.59679      1.41693      7.73502        -2.250170     -0.379920      0.445170
      6.35653     11.29492      6.93015        -1.616476     -0.126714     -0.751151
      3.13653      3.13973      4.04263         1.534433      0.741786      3.236459
      3.21328     11.65600      4.00736        -0.752932     -0.793932     -0.742577
      8.21074     10.48636      0.58533         0.889520     -0.874165      1.421062
      4.66106      9.31312      0.34033        -0.140649      0.168936     -0.061768
      5.18301      8.89955      2.35822         1.116267     -2.543350     -3.444680
      9.31771      3.94599      7.68841        -1.138270     -1.750026      0.530152
      5.23902      9.85383      7.86544        -0.973526      0.587472     -0.339248
      3.16559      5.95227      7.06261         0.339686     -0.228310     -0.124185
     10.41210      8.34985      6.96124         1.933943     -1.335570      1.425656
      9.36432      5.98833      3.79359         0.019452      1.720880     -0.606741
      9.32162      3.43976     11.38121         1.203881     -2.811007     -1.634012
      3.36119      9.71927      3.28352         1.590502     -2.869588     -0.172296
      8.92828      2.69712      4.43297         0.232348     -2.023542     -0.469922
      1.41211      2.63948      2.42965        -0.009538     -0.048263      1.135604
      8.51136      9.25073      7.68800         0.374940     -0.716157     -0.809079
      3.51834      4.23720      7.80703         1.813783     -2.380543      0.221341
      9.55321      4.03530      1.07128         1.460177     -0.815556      2.498792
      6.17137      4.52414     10.08257        -1.911223     -4.574755      0.208572
      7.16545      8.14808     10.42361        -0.034260     -0.571371      0.012054
     11.75029      8.47502      2.39113        -1.893632     -0.060591     -1.484918
      0.52037      2.02022     10.74597        -0.202621     -2.339349      0.377634
      5.81233      3.72563      6.98964        -0.941999     -0.413190     -0.047020
      5.99529      5.46003      1.83388        -0.209574      1.103064      0.557388
     11.44022     11.59848      7.90261         0.200803     -0.215533     -0.129872
      5.04720      0.04317      5.42180        -0.387494      0.800149     -1.343307
      1.72131      7.60085      9.00655         0.282229      0.080230      0.245137
      5.18797      0.30589     12.00533         0.666164      0.174781      0.105217
      5.11071      6.11583      4.34713         0.544399     -3.203113     -2.065566
      5.56439      5.68715      6.98535         2.571713     -1.510502      0.511079
      8.52886     11.87836      7.19800        -0.155692      0.834322      0.262561
      2.44027      3.35588     10.96025        -4.221987     -1.512117     -1.187955
      3.77599      3.96435      0.81934        -1.085211      3.051123      2.880467
      6.90309     10.40862     11.13100         1.093109      2.443264      2.523387
      8.75251      9.81253     10.01705         2.062652     -0.240310     -0.663574
      1.35356      9.96423      9.51567        -2.703798      1.301113      1.010041
      7.54159      4.20698      5.51044        -1.073906      0.096835     -0.035406
      6.75602      2.15494     10.21455        -0.021130     -0.959571     -0.556022
      8.48018      9.78809      3.07714        -0.014807     -0.115366      2.062472
      3.49293      6.62113     10.81521        -1.283110     -0.994918      0.643685
     11.13003      5.86719     10.79504         0.769271     -0.051642     -0.282443
      3.37788      0.54450      8.09813        -0.961225      1.260414     -1.997032
      8.62310      6.38944      9.80175         2.164099      0.731760     -1.509864
      2.16298      9.77094      5.20323        -0.301345     -0.168742      0.631307
     10.52160     11.13126      5.86587         1.349827      0.679649      3.599256
      0.16742      0.73549      2.01009         0.125442      0.084326     -0.312915
     11.41041      2.58777      1.89217        -1.660706      1.396814      0.895149
      9.40563      4.83226      6.05393        -0.015136      0.382567      0.763279
     11.25158     10.25568     10.55082        -1.187529     -0.286111     -0.155799
     10.20314      1.23813      7.19150        -2.075139     -0.412627     -2.822883
      6.87006      3.31216      1.08495         0.237815      0.124743     -0.364690
      0.05627      4.48526      4.79810         2.307023     -3.968919      2.253257
      7.05282     11.81179      2.42949         0.294564     -0.738517     -1.361982
      6.66217      8.89840      4.75355        12.432072      1.720825     -6.784766
      1.29898      7.62325      4.51276         1.173386     -0.930997     -0.731215
      6.93107      5.98892     11.45628        -0.006851     -0.555949      2.884829
     10.37309     11.10575      2.03676         1.355413      0.885065      0.720405
      3.04790     10.90701      9.40895         2.180888      3.532902     -1.161073
      2.52094      5.87672      1.09903        -0.635607     -0.021743     -0.313252
      1.26718      7.72231      0.31685        -2.752231      5.378557      1.541708
      1.59768      4.20650      6.36280        -2.399749     -2.775596     -0.453200
      0.97364      9.81069      3.38215        -0.452010     -0.308392      0.375574
      0.92802     10.13719      0.44085         1.012323     -0.617513      0.155783
     11.87773      1.41484      8.98271         0.086102      0.592992      4.169010
      5.57342     10.39470      5.99706         1.188141     -5.825474     -4.356803
      4.32929      2.41320      4.66368        -0.967828      1.688591      1.524612
      2.27559     11.38260      2.73756        -0.309348      0.530167     -1.024357
      9.47957      9.59630      1.19705         1.948940     -1.265687     -0.642807
      3.86805     10.62640     11.96040         0.176910     -2.567165      0.161174
      6.59686      9.24817      1.50899        -0.742780     -1.316868     -0.819896
      8.84596      2.32425      7.72716        -0.710118      3.024864      0.224420
      4.39080      8.80240      8.72142        -4.074003     -0.084236      2.079178
      1.62659      6.19882      7.71380         2.190862     -2.129142     -0.611393
     11.81802      8.98360      7.04101        -0.301234     -1.287385      0.408954
      8.46410      6.15070      2.73228        -4.753845     -2.811221     -3.761120
     10.05212      3.04525      9.90279        -1.520158     -1.715112      2.629059
      3.18153      8.08376      3.56422         0.501140     -0.626287     -0.337957
     10.05742      2.11792      3.58760        -0.980143     -0.806486      0.043007
      2.14010      3.90332      2.67620        -0.785437     -0.049106      0.769789
      7.96986      8.45312      6.41651         2.164277      0.249048      1.648104
      3.60964      2.62774      7.77825        -0.046829     -0.602692     -0.637829
      8.29682      4.96968      0.74537         0.154887     -0.177182      0.323231
      5.20332      3.24907      9.09895         0.832766      1.446153      3.448146
      6.26388      9.25099      9.69259         0.815459     -0.892881      0.174663
     10.58310      7.55942      2.48010        -1.255582     -1.422895      0.492379
     11.25082      1.89165     11.15866         0.274055     -2.363445     -0.530073
      7.10668      4.17211      7.49394         4.796290     -1.656186      4.605123
      6.55144      7.16556      1.29103        -1.212940     -3.923282      1.223568
     10.99875     10.05173      8.29460         0.692482      3.085196     -3.037034
      5.22683      0.56900      3.82627        -1.008047     -0.212767      2.890463
      0.40213      7.48556      8.24032         0.330912     -1.394196      0.835900
      4.09443      1.41252      0.15910         0.002944      0.804630      0.130070
      4.78464      4.52701      4.05335         0.043195      0.413659      0.502164
      5.09036      7.34988      7.37417        -0.075600     -4.690558     -1.975518
      7.56563     12.07202      8.54024         1.087006     -1.136534     -2.409838
      0.98516      3.89248     10.69784        -3.582065      6.002199      0.783032
      4.58594      3.52819     11.84653         1.632738      0.089661     -1.841429
      7.24770     12.13535     11.22366        -0.112931     -2.504576      1.446920
      9.65186      8.56803      9.88168         0.491402      1.682498     -0.728621
      1.97569      9.84021      7.85807        -0.203430     -0.419247      4.355277
      8.05041      4.29860      3.91434        -0.353671     -0.287189      2.775182
      8.17052      1.76772     10.34742         1.511385      0.053416     -0.012128
      9.05092      8.59823      3.88253        -2.174752      3.190231      0.969109
      4.12555      7.95688     10.82879         0.049791     -0.142545      0.084191
      0.38786      5.91319     10.04825        -0.254422      0.573287     -0.856462
      3.46787      0.57003      6.52834         0.699083     -0.691120     -1.425420
      9.76714      6.12258      8.57529        -1.364934      2.257861      2.359289
      2.94917      8.74787      6.12354        -0.660341      1.716124     -0.265953
      9.78811     10.42314      4.95416        -6.084626     -6.365661     -1.057585
      0.53281      1.18138      0.59778        -0.344744     -0.369967     -2.311041
     10.70428      3.19581      2.33947         0.833624     -2.622634     -2.770884
      9.94134      5.16595      6.81966         0.818753      0.127487     -1.752944
     12.12180     10.61603     10.64038         1.363880      2.267877      1.526916
      9.34240      1.11885      6.57412         2.421916      0.066665      2.346750
      6.79954      3.17216      2.02454        -1.446409     -1.699113      0.255409
     11.75172      5.18573      4.45118        -1.268836      4.674059     -2.505136
      6.91143      0.12675      3.23293        -1.873902     -0.077617      0.440302
      5.94522      8.80584      5.12357        -8.411753     -1.310802      9.887210
      1.97784      6.95334      4.18064        -1.507217      1.657240     -0.072539
      6.86878      6.20964     10.56317        -2.068796      1.909501     -2.834316
     11.15819     11.46365      2.53849        -1.051252     -0.778836     -1.590615
      3.67846     11.89327      9.35968        -2.272968     -4.644191      5.020921
      2.90664      5.20019      1.68456        -1.241136     -1.547510     -2.230439
      1.70003      6.98027      0.13626         2.464105     -6.112539     -2.171013
      0.88043      3.38879      6.11722         4.371988      0.926574     -1.531646
      0.65326      9.31066      4.15507        -3.461268      1.528174      0.567041
      1.44814      9.61459      1.08588        -0.725755      0.236144      0.745310
     11.80794      1.19845      8.10953         1.976487     -0.357805     -4.749070
      5.41415     11.07922      6.50973         1.100151      6.109310      5.333659
      3.80830      3.27194      4.89656        -0.745308     -2.515111     -4.619741
      2.60415     10.98878      3.52758         2.155828      0.430732      1.519454
      8.63571      9.92805      1.37634        -3.005561      2.225243     -0.823939
      3.85306      9.60398     11.99312         0.285335      2.356118     -0.056316
      5.86083      8.58868      1.33585        -0.507573      2.992308      4.235504
      8.62644      3.29158      8.06067         1.786523     -1.081363     -0.536858
      5.13857      8.99033      8.27204         4.560645     -0.570362     -1.655835
      2.32652      5.47549      7.19145        -1.408132      1.366521      0.179720
     11.39685      8.11500      7.29662        -1.354256      2.288441     -1.833749
      9.02749      6.67796      3.14847         4.746157      1.209018      4.646935
      9.72562      2.55534     10.77706        -0.016863      4.964403     -0.694499
      3.91515      8.63355      3.21677        -1.633581      4.612978      0.326906
      9.27106      1.78778      4.08913         0.077780      2.268951      0.533300
      1.64136      3.21943      3.20359         0.886928      0.297308     -2.211244
      8.76427      8.53955      7.05112        -2.367181      0.702781     -1.041261
      4.17295      3.40585      7.89005        -1.166829      2.616842      0.616425
      9.00375      4.38979      0.42415        -1.619103      1.054856     -2.776935
      5.71124      3.46069     10.16962         0.434336      3.576210     -3.547951
      6.99930      9.08329     10.33930        -0.977085      1.423417     -0.717183
     10.86560      8.26466      1.93596         3.176910      1.684962      0.622974
     11.98160      1.19558     10.91704        -0.028414      3.921827      0.631933
      6.51418      4.35921      6.87703        -3.668470      1.562258     -4.775898
      6.64400      6.02386      1.39378         1.734130      2.892149     -1.837885
     11.28794     10.72994      7.47982        -0.981848     -2.469859      3.404882
      4.62435      0.62413      4.67335         1.286778     -1.049286     -1.838171
      1.11221      6.90087      8.73569        -1.758548      2.102299     -0.888840
      4.27096      0.54680     11.93588        -0.553517     -1.394922     -0.101506
      5.26073      5.30239      3.68647        -0.713773      2.799771      1.907295
      4.89853      6.31833      6.91225        -2.843406      7.166883      1.340138
      7.81063     11.48005      7.72595        -1.584878      0.423980      2.336512
      1.39276      3.13014     10.58887         8.058446     -4.057684      0.567864
      3.88743      3.25786      0.26537        -0.575733     -3.476709     -1.811613
      7.15366     11.22995     11.82865        -0.836168      0.449940     -3.785291
      9.70983      9.57808      9.77555        -2.142653     -1.700469      1.086495
      2.03024      9.63789      8.97942         3.013177     -0.718825     -5.623727
      8.28899      4.18125      4.89732         0.890293      0.185421     -3.015626
      7.35404      1.34192     10.10325        -1.480073      0.240892      0.636263
      8.54228      9.53809      4.07806         1.593333     -3.849056     -3.255245
      4.26433      7.04763     10.51260         1.229923      1.702516     -0.558755
     12.06625      5.59024     10.82226        -0.613705     -0.550983      0.814389
      3.08367      1.06906      7.20922        -0.263670     -0.476494      3.808921
      9.48319      6.76266      9.37139        -0.884288     -3.060583     -0.629160
      2.54188      9.65695      6.09234         0.876927     -1.629539      0.609596
     10.32971     11.08488      4.97769         5.279923      5.331414     -2.355481
      0.66358      1.40543      1.49200        -0.251013     -0.043170      2.504790
 -----------------------------------------------------------------------------------
    total drift:                                0.002509     -0.001261     -0.000888


--------------------------------------------------------------------------------------------------------



  FREE ENERGIE OF THE ION-ELECTRON SYSTEM (eV)
  ---------------------------------------------------
  free  energy   TOTEN  =     -1235.99757180 eV

  energy  without entropy=    -1235.99757180  energy(sigma->0) =    -1235.99757180
 


--------------------------------------------------------------------------------------------------------


    POTLOK:  cpu time      0.5483: real time      0.5500


--------------------------------------------------------------------------------------------------------


     LOOP+:  cpu time   4641.0481: real time   4666.2521
    4ORBIT:  cpu time      0.0000: real time      0.0000

 total amount of memory used by VASP MPI-rank0  1214923. kBytes
=======================================================================

   base      :      30000. kBytes
   nonl-proj :     175513. kBytes
   fftplans  :      50840. kBytes
   grid      :      69741. kBytes
   one-center:        294. kBytes
   HF        :          9. kBytes
   nonlr-proj:      23201. kBytes
   wavefun   :       5320. kBytes
   fock_wrk  :     860005. kBytes
 
  
  
 General timing and accounting informations for this job:
 ========================================================
  
                  Total CPU time used (sec):     4649.125
                            User time (sec):     4433.531
                          System time (sec):      215.595
                         Elapsed time (sec):     4675.843
  
                   Maximum memory used (kb):     2850028.
                   Average memory used (kb):          N/A
  
                          Minor page faults:      2314785
                          Major page faults:           62
                 Voluntary context switches:         3424
