LAMMPS data file

384 atoms
4 atom types
0.0  15.660000  xlo xhi
0.0  15.660000  ylo yhi
0.0  15.660000  zlo zhi

Masses

1  1.0080
2  12.0100
3  14.0000
4  16.0000

Atoms

1  1  14.6479  34.5230  10.1852
2  1  13.6973  20.0881  10.5111
3  4  14.3678  19.7307  9.8732
4  1  7.1600  13.2135  7.6336
5  1  7.3207  -6.4708  -0.8764
6  4  7.1845  14.1727  7.3830
7  1  28.4094  -5.4182  0.8848
8  1  29.7715  -6.1295  0.8984
9  4  29.3915  -5.2530  0.7261
10  1  25.3989  20.1672  15.3797
11  1  25.4068  18.6684  15.4866
12  4  25.8089  19.4064  14.9428
13  1  17.2999  10.2721  6.8582
14  1  16.4819  11.5505  6.8343
15  4  16.6094  10.7271  7.3017
16  1  17.8150  5.6742  24.6354
17  1  19.3155  5.3177  24.8859
18  4  18.6746  5.4776  24.2112
19  1  8.2180  11.6347  8.1840
20  1  7.8330  10.7756  6.8592
21  4  7.8357  11.6730  7.2783
22  1  15.5223  -2.1031  9.9283
23  1  16.8930  -2.9609  9.8597
24  4  16.1375  -2.5321  9.3640
25  1  25.0798  4.4631  3.7903
26  1  6.5570  15.1411  3.3511
27  4  6.7204  15.5286  4.1597
28  1  11.7423  15.3345  4.5205
29  1  10.6360  15.3204  5.6592
30  4  11.5960  15.4978  5.5040
31  1  25.0221  9.9013  6.2539
32  1  24.1434  9.5181  5.0279
33  4  24.3071  9.3269  5.9888
34  1  17.6024  1.5771  -14.8070
35  1  16.1040  1.8134  -14.3458
36  4  16.9389  2.2243  -14.5801
37  1  8.3772  7.8985  6.5661
38  1  7.8449  6.9757  7.8035
39  4  8.1907  6.9606  6.8274
40  1  14.2035  -5.1528  -1.2440
41  1  12.1515  15.3087  -7.0112
42  4  14.1352  -5.4616  -2.1935
43  1  12.9363  6.1637  11.6907
44  1  11.7701  5.5474  10.8827
45  4  12.5488  5.2682  11.4064
46  1  11.0409  -14.6220  11.8687
47  1  12.1202  -13.9247  12.6611
48  4  11.9904  -14.7138  12.1617
49  1  17.8029  1.8197  8.4178
50  1  16.4818  0.7277  8.2011
51  4  17.2400  1.0595  8.7535
52  1  9.8205  -1.6911  10.7501
53  1  11.1509  -2.1661  9.9297
54  4  10.5443  -2.4410  10.6818
55  1  28.0502  4.1997  -2.9838
56  1  27.2177  3.5974  -1.8262
57  4  28.0600  3.4517  -2.3662
58  1  1.8945  11.1541  8.9101
59  1  3.0720  10.8903  9.9995
60  4  2.5061  11.5460  9.5967
61  1  15.0491  -2.8282  2.2629
62  1  13.9071  -3.8061  1.7644
63  4  14.1616  -3.1064  2.3779
64  1  20.0635  -2.0691  8.4018
65  1  19.4157  -3.2275  9.0156
66  4  20.2903  -3.0089  8.5744
67  1  -3.4337  -11.6870  16.7126
68  1  11.7164  -12.1531  18.1296
69  4  -3.2077  -11.7210  17.6356
70  1  7.4638  14.9153  9.5883
71  1  7.6144  14.4697  10.8617
72  4  8.0889  15.0543  10.3003
73  1  24.2719  2.2239  17.2936
74  1  25.4485  1.1872  16.7845
75  4  24.7449  1.8724  16.4879
76  1  20.6651  1.0466  12.7612
77  1  10.8604  5.3302  6.1498
78  4  20.2599  1.4966  11.9927
79  1  5.3447  13.4315  11.8949
80  1  5.5566  12.9525  10.4798
81  4  6.0227  13.3012  11.1872
82  1  10.4893  17.6439  8.1272
83  1  9.9165  18.8099  7.3839
84  4  9.6961  17.9823  7.7697
85  1  3.2471  8.4919  11.3146
86  1  17.2309  18.0690  -2.2601
87  4  16.5771  17.5095  -2.6319
88  1  22.3145  -11.9977  17.2727
89  1  21.7824  -10.4879  17.1849
90  4  22.1713  -11.2180  16.7153
91  1  7.7557  -5.0225  -0.2046
92  1  -3.0018  8.7284  11.4020
93  4  7.0662  -5.7636  -0.2460
94  1  19.5814  9.2496  15.7450
95  1  20.9362  9.6901  15.0905
96  4  19.9729  9.4527  14.9008
97  1  13.5317  -4.1108  5.7377
98  1  13.3473  -5.5827  5.5858
99  4  13.8241  -4.8566  5.1867
100  1  19.6422  2.6175  7.3046
101  1  18.9867  3.8962  7.9835
102  4  19.2361  2.9637  8.1099
103  1  8.2482  0.9389  -0.1376
104  1  7.3604  1.4557  -1.1628
105  4  7.6585  0.6143  -0.8577
106  1  20.9163  -8.3998  1.8367
107  1  20.3850  -9.5858  2.7811
108  4  20.6543  6.2633  1.8722
109  1  13.3731  14.6147  0.3938
110  1  13.4027  13.9795  1.8263
111  4  13.3200  14.8320  1.3164
112  1  29.3491  17.8953  17.4882
113  1  29.5139  16.3682  17.0903
114  4  30.0121  17.2107  17.1802
115  1  16.1623  23.2962  21.0232
116  1  15.6871  24.3290  21.9826
117  4  15.4843  23.4825  6.0359
118  1  14.6624  0.9539  22.3722
119  1  15.9940  1.0083  21.5937
120  4  15.5588  0.5663  22.2746
121  1  14.7530  6.1388  7.3430
122  1  14.1797  5.3165  8.5568
123  4  13.9333  5.8028  7.7462
124  1  22.8745  1.5003  3.3676
125  1  23.7073  2.8588  3.5610
126  4  23.1745  2.2828  2.9369
127  1  11.2848  9.2661  3.1126
128  1  10.5219  7.9283  3.3027
129  4  11.2076  8.3784  2.7294
130  1  13.1465  4.8027  -16.7589
131  1  12.4870  6.1226  -16.3414
132  4  13.3764  5.6573  -16.3743
133  1  20.1084  1.3538  5.2809
134  1  21.2610  2.2917  5.6785
135  4  20.2892  2.2424  5.5072
136  1  17.9709  2.3923  5.4993
137  1  1.5385  3.1055  4.4757
138  4  17.3003  2.2013  4.8693
139  1  12.9856  7.4818  5.5414
140  1  12.6721  7.7930  7.0341
141  4  12.4152  8.0001  6.0988
142  1  6.1400  -0.0183  -1.0882
143  1  4.8626  -0.8546  -1.6603
144  4  5.1957  0.0165  -1.4011
145  1  0.6174  1.5306  -5.6649
146  1  8.8096  6.2408  2.2229
147  4  24.5258  6.7297  3.0708
148  1  17.6560  11.2934  14.1438
149  1  19.1219  11.1650  14.8160
150  4  18.3313  11.7424  14.7443
151  1  20.5455  -4.9987  7.7661
152  1  21.2026  -6.3356  8.2003
153  4  20.5975  -5.9599  7.5372
154  1  14.1807  7.3030  2.4766
155  1  15.2564  6.8284  1.4938
156  4  14.7651  7.6377  1.7823
157  1  11.5687  9.5330  6.7495
158  1  10.9556  10.9793  7.0005
159  4  10.8488  10.0508  7.1827
160  1  9.1768  12.0691  6.0080
161  1  8.8391  17.0856  10.7734
162  4  9.4821  17.6965  11.1677
163  1  3.3206  -1.7340  -2.9798
164  1  3.3804  12.6136  -2.2094
165  4  3.9172  13.3050  -2.5845
166  1  23.7301  12.4181  16.0243
167  1  13.5989  -4.8233  -2.7208
168  4  24.3914  11.9135  -0.0792
169  1  18.8348  0.3487  2.7593
170  1  17.8486  0.9793  3.7871
171  4  18.2452  0.1619  3.5320
172  1  32.3792  9.1333  25.4513
173  1  10.3715  -4.6835  0.6482
174  4  11.0687  -5.3886  0.7170
175  1  7.3229  -9.6178  -9.9469
176  1  6.0401  -10.3528  -10.5823
177  4  6.9954  -10.3982  -10.4827
178  1  19.0025  4.3365  13.3804
179  1  19.8223  3.2991  14.1527
180  4  18.9024  3.6449  14.0129
181  1  9.4401  5.7633  6.6163
182  1  15.1662  -10.5588  15.5155
183  4  10.1334  5.0341  6.6675
184  1  19.9065  16.9053  1.0917
185  1  20.6583  1.4623  2.3864
186  4  20.2598  0.7638  1.8989
187  1  24.5121  3.7093  -2.0312
188  1  24.3931  3.0639  -3.3177
189  4  23.8462  3.5796  -2.7157
190  1  8.6743  12.1318  4.5484
191  1  1.8266  20.4497  3.0735
192  4  9.4489  11.9663  5.1169
193  1  3.1012  15.7424  8.2054
194  1  3.6393  -0.7039  7.0581
195  4  19.4762  -0.5172  7.9994
196  1  5.2248  9.3644  5.8629
197  1  5.7780  9.6864  4.4357
198  4  4.9422  9.6788  4.9856
199  1  24.2796  6.5341  15.4177
200  1  23.4647  5.5657  0.5056
201  4  24.3814  5.8688  16.1016
202  1  11.5737  8.7433  15.0917
203  1  12.3648  9.1724  13.8036
204  4  11.8676  8.4116  14.2182
205  1  30.1095  -0.7231  11.7907
206  1  30.6170  0.1768  10.5848
207  4  30.3327  -0.7115  10.8273
208  1  0.2030  14.5327  6.5680
209  1  0.5082  13.3998  7.5971
210  4  0.4441  13.5888  6.6577
211  1  14.2352  -13.8245  15.2374
212  1  13.6561  2.7660  13.9946
213  4  14.2965  -13.5305  14.3072
214  1  -2.3246  4.8374  6.6520
215  1  -2.5618  5.0740  5.2115
216  4  -2.7798  4.4323  5.8650
217  1  22.7775  6.8634  13.6081
218  1  23.9035  7.9344  -2.0253
219  4  23.2238  7.4804  14.2108
220  1  9.8615  5.8759  9.9728
221  1  10.3941  4.8548  8.9292
222  4  10.1080  4.9710  9.8565
223  1  3.3873  5.0598  1.3579
224  1  2.5902  19.3907  1.3244
225  4  2.5708  4.6916  1.5607
226  1  13.3385  23.0576  13.3102
227  1  14.5059  22.8092  12.4691
228  4  13.6010  22.9632  12.3685
229  1  8.6775  12.1884  12.7616
230  1  7.3998  12.0813  11.9520
231  4  8.1279  11.5896  12.2948
232  1  10.7395  -5.7849  1.5274
233  1  1.1228  11.9731  3.6677
234  4  -0.1125  1.7165  -5.0573
235  1  5.0459  9.0479  17.6504
236  1  13.1780  14.7466  -6.1003
237  4  12.5129  14.4487  -6.7465
238  1  7.6277  15.4274  4.4553
239  1  1.6583  21.2351  4.4315
240  4  1.4149  20.4245  3.9793
241  1  7.6517  10.6856  3.3940
242  1  7.1187  9.1457  2.8942
243  4  7.4746  9.7292  3.6029
244  1  6.7812  -5.2742  10.4070
245  1  5.2780  -6.0518  10.3884
246  4  6.1778  -5.9877  10.1265
247  1  7.3348  6.6407  -5.4339
248  1  6.8707  8.0300  -5.8470
249  4  7.4333  7.3183  -6.1443
250  1  6.1884  8.9726  16.5817
251  1  15.7840  17.6928  -2.0691
252  4  5.9100  8.6033  17.4823
253  1  24.4686  12.4444  -0.8997
254  1  32.2753  -10.6050  15.9918
255  4  16.0459  -10.3895  15.2375
256  1  7.0961  28.5867  2.7167
257  1  6.6169  28.2892  4.1004
258  4  7.4063  28.2997  3.6152
259  1  25.5371  3.3615  4.7235
260  1  -4.3055  8.6384  10.5310
261  4  25.5001  3.5756  3.8033
262  1  3.4521  8.5817  7.6243
263  1  2.3422  7.4734  7.3234
264  4  2.4992  8.3725  7.5215
265  1  -1.0217  0.4104  13.6504
266  1  -0.4225  -1.0411  14.0359
267  4  -1.0291  -0.5543  13.4240
268  1  1.0028  -5.0386  11.8348
269  1  -0.0098  -5.3381  12.9968
270  4  0.9295  -4.9167  12.7801
271  1  20.3513  11.4298  -10.7612
272  1  19.7636  12.9720  -10.6426
273  4  20.4847  12.3609  -11.0907
274  1  17.8977  9.3319  12.8375
275  1  19.0832  8.6571  13.6826
276  4  18.4254  8.4900  12.9484
277  1  16.1921  -9.6046  -1.9914
278  1  17.2080  -8.5609  13.2105
279  4  16.2967  -8.9023  -2.6494
280  1  17.0407  -1.7469  17.2786
281  1  17.4556  -1.2080  18.6655
282  4  17.1668  -2.0551  18.1732
283  1  22.9650  3.8102  5.8556
284  1  23.1811  2.6680  6.9153
285  4  22.8152  2.8946  6.0392
286  1  23.6779  6.5201  3.5514
287  1  19.3866  1.1682  11.7777
288  4  -3.6924  9.2514  10.9571
289  1  12.2727  -0.7645  -2.1987
290  1  12.1081  -2.3163  -2.0289
291  4  11.8558  -1.4823  -1.6507
292  1  22.1907  -12.0285  13.8618
293  1  21.7001  -12.0521  15.3197
294  4  21.5912  -12.5361  14.4702
295  1  16.1987  8.5448  2.6816
296  1  16.6606  9.8002  3.2998
297  4  17.0212  9.0185  2.8477
298  1  22.3868  4.6720  -4.5658
299  1  23.4351  5.0886  -3.5998
300  4  22.6473  5.4898  -4.0264
301  1  2.5711  14.6439  4.9293
302  1  2.1242  13.6983  6.0122
303  4  2.9054  14.1641  5.6626
304  1  17.8226  -1.9479  -0.2805
305  1  17.3219  -0.4655  -0.3981
306  4  17.0234  -1.3339  -0.1741
307  1  9.7998  -1.8005  4.0115
308  1  10.8486  -2.5761  3.2830
309  4  10.4200  -1.7299  3.3008
310  1  3.6389  -5.0309  -14.1269
311  1  18.4049  -6.2531  -13.5457
312  4  19.2826  -5.9575  -13.8660
313  1  -6.7003  9.8052  -3.1256
314  1  -5.4996  9.1031  -2.3456
315  4  -6.4351  8.9701  -2.6876
316  1  21.2381  -2.0531  16.8202
317  1  22.3210  -0.9412  16.8038
318  4  22.2163  -1.9223  16.8217
319  1  13.0568  2.7973  21.8643
320  1  12.4188  17.0755  21.9804
321  4  13.0443  2.0214  22.4033
322  1  -6.4727  7.9272  8.8975
323  1  -5.3898  8.9446  8.5170
324  4  -5.7513  -7.1325  9.2777
325  1  2.1417  7.8704  3.8112
326  1  2.9169  8.0437  5.1099
327  4  17.9626  7.4224  4.6587
328  1  17.3726  0.1833  -3.1045
329  1  17.5569  -0.4743  -4.4277
330  4  18.0590  -0.2847  -3.6188
331  1  19.4305  0.7557  14.7108
332  1  0.3165  2.0698  11.4633
333  4  18.5859  1.0376  15.1268
334  1  11.5832  12.4939  -3.8170
335  1  11.8182  11.0164  -4.0036
336  4  12.0424  11.7629  -3.4077
337  1  10.9634  -4.4565  4.3924
338  1  12.3745  -4.7921  3.9043
339  4  11.4363  -4.8456  3.6390
340  1  12.2633  6.8935  3.2083
341  1  12.7409  5.5114  2.7248
342  4  12.7938  6.1295  3.4391
343  1  9.2564  11.7227  -5.3373
344  1  9.0189  10.3278  -6.0973
345  4  8.6130  11.1978  -5.8986
346  1  -0.1409  11.3729  4.5054
347  1  18.3411  1.8977  14.6359
348  4  0.7520  11.2651  4.1082
349  1  6.3825  14.3168  6.9846
350  1  31.4422  10.2152  24.9907
351  4  31.7333  9.7555  25.7606
352  1  24.2884  14.5988  -1.8026
353  1  25.7074  14.1494  -2.0245
354  4  24.7832  13.8849  -2.2263
355  1  26.3918  -0.6189  17.9479
356  1  27.3001  0.0836  17.0101
357  4  26.4364  0.2042  17.4228
358  1  5.3940  18.1724  10.8106
359  1  5.0552  18.6509  9.4030
360  4  5.6830  18.7942  10.1342
361  1  20.0359  -3.3084  2.6411
362  1  19.0549  -2.8165  1.5870
363  4  19.9537  -3.1605  1.7027
364  1  15.6552  5.3824  -5.4137
365  1  16.5774  6.2170  -4.4866
366  4  16.3275  6.1195  -5.4369
367  1  -3.3616  17.2625  10.1503
368  1  12.6788  17.6769  8.6406
369  4  12.0303  17.2659  9.1893
370  1  4.4990  3.9258  20.0323
371  1  3.9482  5.0870  20.7460
372  4  4.5637  4.8755  20.0595
373  1  12.2789  13.0639  7.4588
374  1  11.7143  13.2695  6.0740
375  4  11.9459  12.5552  6.6837
376  1  8.9441  16.0781  -9.3077
377  1  8.2784  14.7906  -9.4498
378  4  8.8993  15.3945  -9.9144
379  1  25.4806  18.1985  10.4110
380  1  3.0885  7.9979  9.8134
381  4  3.5521  8.5920  10.4281
382  4  13.4397  -6.6703  8.3189
383  1  14.2025  -7.1498  8.5982
384  1  12.9369  -6.3985  9.1203
